<?xml version="1.0"?>
<VTKFile type="UnstructuredGrid" version="0.1" byte_order="LittleEndian">
<UnstructuredGrid>
<Piece NumberOfPoints="30881" NumberOfCells="10862">
<Points>
<DataArray type="Float64" NumberOfComponents="3" format="ascii">
-0.49999999999999828 -0.48677703703187492 0 -0.5 -0.5 0 -0.48129281494584059 -0.49338851851593718 0 -0.5 -0.5 0 -0.48129281494584059 -0.49338851851593718 0 -0.46258562989168328 -0.5 0 -0.49999999999999828 -0.48677703703187492 0 -0.48129281494584059 -0.49338851851593718 0 -0.49999999999999828 -0.48677703703187492 0 -0.4824545428279598 -0.47451624516148783 0 -0.48129281494584059 -0.49338851851593718 0 -0.49999999999999828 -0.48677703703187492 0 -0.4824545428279598 -0.47451624516148783 0 -0.5 -0.46599539173150673 0 -0.4824545428279598 -0.47451624516148783 0 -0.46853075243710779 -0.48354990242643758 0 -0.46411508256092049 -0.46598235294430129 0 -0.4824545428279598 -0.47451624516148783 0 -0.48129281494584059 -0.49338851851593718 0 -0.46853075243710779 -0.48354990242643758 0 -0.48129281494584059 -0.49338851851593718 0 -0.46258562989168328 -0.5 0 -0.48129281494584059 -0.49338851851593718 0 -0.46258562989168328 -0.5 0 -0.46853075243710779 -0.48354990242643758 0 -0.46258562989168328 -0.5 0 -0.46853075243710779 -0.48354990242643758 0 -0.45147378687733691 -0.48362213557840178 0 -0.46853075243710779 -0.48354990242643758 0 -0.45147378687733691 -0.48362213557840178 0 -0.46411508256092049 -0.46598235294430129 0 -0.4457251648104853 -0.47020164095208389 0 -0.45147378687733691 -0.48362213557840178 0 -0.46411508256092049 -0.46598235294430129 0 -0.4457251648104853 -0.47020164095208389 0 -0.45147378687733691 -0.48362213557840178 0 -0.43513446131126993 -0.48199891714758791 0 -0.45147378687733691 -0.48362213557840178 0 -0.43275163025255442 -0.5 0 -0.43513446131126993 -0.48199891714758791 0 -0.46258562989168328 -0.5 0 -0.45147378687733691 -0.48362213557840178 0 -0.43275163025255442 -0.5 0 -0.4467190029717853 -0.45478934699519452 0 -0.4422915115958943 -0.43555510214664611 0 -0.43246707723660932 -0.44794326854796312 0 -0.4457251648104853 -0.47020164095208389 0 -0.4467190029717853 -0.45478934699519452 0 -0.46411508256092049 -0.46598235294430129 0 -0.4457251648104853 -0.47020164095208389 0 -0.4467190029717853 -0.45478934699519452 0 -0.43016578207734568 -0.46313500011938619 0 -0.4467190029717853 -0.45478934699519452 0 -0.46411508256092049 -0.46598235294430129 0 -0.47114575579794699 -0.4403844242888923 0 -0.4467190029717853 -0.45478934699519452 0 -0.47114575579794699 -0.4403844242888923 0 -0.4422915115958943 -0.43555510214664611 0 -0.47114575579794699 -0.4403844242888923 0 -0.4422915115958943 -0.43555510214664611 0 -0.46411508256092049 -0.46598235294430129 0 -0.47114575579794699 -0.4403844242888923 0 -0.48354307623736548 -0.45841843211146538 0 -0.4824545428279598 -0.47451624516148783 0 -0.46411508256092049 -0.46598235294430129 0 -0.48354307623736548 -0.45841843211146538 0 -0.4824545428279598 -0.47451624516148783 0 -0.48354307623736548 -0.45841843211146538 0 -0.5 -0.46599539173150673 0 -0.48354307623736548 -0.45841843211146538 0 -0.5 -0.46599539173150673 0 -0.49999999999999972 -0.44521374643113848 0 -0.47114575579794699 -0.4403844242888923 0 -0.49999999999999972 -0.44521374643113848 0 -0.47114575579794699 -0.4403844242888923 0 -0.49999999999999972 -0.44521374643113848 0 -0.48704432221743971 -0.42935617662229603 0 -0.47114575579794699 -0.4403844242888923 0 -0.48354307623736548 -0.45841843211146538 0 -0.49999999999999972 -0.44521374643113848 0 -0.49999999999999972 -0.44521374643113848 0 -0.48704432221743971 -0.42935617662229603 0 -0.5 -0.41591957503128979 0 -0.48704432221743971 -0.42935617662229603 0 -0.5 -0.41591957503128979 0 -0.47703153307181151 -0.41590696073786332 0 -0.5 -0.41591957503128979 0 -0.47703153307181151 -0.41590696073786332 0 -0.48817838912021821 -0.4022119694541284 0 -0.47114575579794699 -0.4403844242888923 0 -0.48704432221743971 -0.42935617662229603 0 -0.47703153307181151 -0.41590696073786332 0 -0.5 -0.38662540363144121 0 -0.47568202340906118 -0.39039593841591919 0 -0.4947615751445838 -0.37332156409002909 0 -0.47568202340906118 -0.39039593841591919 0 -0.4947615751445838 -0.37332156409002909 0 -0.5 -0.38662540363144121 0 -0.48817838912021821 -0.4022119694541284 0 -0.47568202340906118 -0.39039593841591919 0 -0.5 -0.41591957503128979 0 -0.5 -0.38662540363144121 0 -0.48817838912021821 -0.4022119694541284 0 -0.47703153307181151 -0.41590696073786332 0 -0.48817838912021821 -0.4022119694541284 0 -0.47568202340906118 -0.39039593841591919 0 -0.47703153307181151 -0.41590696073786332 0 -0.47568202340906118 -0.39039593841591919 0 -0.45660247167353862 -0.40747031274180939 0 -0.47568202340906118 -0.39039593841591919 0 -0.48030931097003587 -0.37191064435083931 0 -0.46669490250066459 -0.37481721741951951 0 -0.47568202340906118 -0.39039593841591919 0 -0.4947615751445838 -0.37332156409002909 0 -0.48030931097003587 -0.37191064435083931 0 -0.45332061783919553 -0.38729481725706361 0 -0.46669490250066459 -0.37481721741951951 0 -0.45095991715087752 -0.36968037302039969 0 -0.47568202340906118 -0.39039593841591919 0 -0.45332061783919553 -0.38729481725706361 0 -0.46669490250066459 -0.37481721741951951 0 -0.47568202340906118 -0.39039593841591919 0 -0.45660247167353862 -0.40747031274180939 0 -0.47568202340906118 -0.39039593841591919 0 -0.45332061783919553 -0.38729481725706361 0 -0.45660247167353862 -0.40747031274180939 0 -0.44332653075004852 -0.401690115615219 0 -0.44646247228389868 -0.41654464256061052 0 -0.42870657106664078 -0.39987574649354879 0 -0.45332061783919553 -0.38729481725706361 0 -0.44332653075004852 -0.401690115615219 0 -0.43479631603355468 -0.39077639303142497 0 -0.45332061783919553 -0.38729481725706361 0 -0.44332653075004852 -0.401690115615219 0 -0.45660247167353862 -0.40747031274180939 0 -0.45332061783919553 -0.38729481725706361 0 -0.43421362475025049 -0.37527491429266319 0 -0.43479631603355468 -0.39077639303142497 0 -0.45332061783919553 -0.38729481725706361 0 -0.43421362475025049 -0.37527491429266319 0 -0.45095991715087752 -0.36968037302039969 0 -0.47114575579794699 -0.4403844242888923 0 -0.45663439814062529 -0.42533932462455271 0 -0.4422915115958943 -0.43555510214664611 0 -0.47114575579794699 -0.4403844242888923 0 -0.47703153307181151 -0.41590696073786332 0 -0.45663439814062529 -0.42533932462455271 0 -0.45663439814062529 -0.42533932462455271 0 -0.45660247167353862 -0.40747031274180939 0 -0.44646247228389868 -0.41654464256061052 0 -0.47703153307181151 -0.41590696073786332 0 -0.45663439814062529 -0.42533932462455271 0 -0.45660247167353862 -0.40747031274180939 0 -0.44332653075004852 -0.401690115615219 0 -0.45660247167353862 -0.40747031274180939 0 -0.44646247228389868 -0.41654464256061052 0 -0.45660247167353862 -0.40747031274180939 0 -0.44646247228389868 -0.41654464256061052 0 -0.44646247228389868 -0.41654464256061052 0 -0.4375229199380159 -0.42454468706769971 0 -0.45663439814062529 -0.42533932462455271 0 -0.4375229199380159 -0.42454468706769971 0 -0.4422915115958943 -0.43555510214664611 0 -0.45663439814062529 -0.42533932462455271 0 -0.44646247228389868 -0.41654464256061052 0 -0.4375229199380159 -0.42454468706769971 0 -0.4375229199380159 -0.42454468706769971 0 -0.4422915115958943 -0.43555510214664611 0 -0.43077617074680319 -0.43406335077952207 0 -0.43077617074680319 -0.43406335077952207 0 -0.42550232634077589 -0.42345940056268039 0 -0.41950844772475421 -0.43888456563633732 0 -0.4375229199380159 -0.42454468706769971 0 -0.43077617074680319 -0.43406335077952207 0 -0.42550232634077589 -0.42345940056268039 0 -0.44646247228389868 -0.41654464256061052 0 -0.41657232816672918 -0.41306671883907142 0 -0.42870657106664078 -0.39987574649354879 0 -0.44646247228389868 -0.41654464256061052 0 -0.4375229199380159 -0.42454468706769971 0 -0.42550232634077589 -0.42345940056268039 0 -0.44646247228389868 -0.41654464256061052 0 -0.42550232634077589 -0.42345940056268039 0 -0.41657232816672918 -0.41306671883907142 0 -0.44646247228389868 -0.41654464256061052 0 -0.41657232816672918 -0.41306671883907142 0 -0.42550232634077589 -0.42345940056268039 0 -0.41657232816672918 -0.41306671883907142 0 -0.41333489101611293 -0.42699700567040988 0 -0.41657232816672918 -0.41306671883907142 0 -0.41333489101611293 -0.42699700567040988 0 -0.39893236021425188 -0.42931692235905211 0 -0.41333489101611293 -0.42699700567040988 0 -0.39893236021425188 -0.42931692235905211 0 -0.41950844772475421 -0.43888456563633732 0 -0.42550232634077589 -0.42345940056268039 0 -0.41333489101611293 -0.42699700567040988 0 -0.41950844772475421 -0.43888456563633732 0 -0.43421362475025049 -0.37527491429266319 0 -0.42478231784314502 -0.38643128255249681 0 -0.41656514696884139 -0.37636588688318029 0 -0.43421362475025049 -0.37527491429266319 0 -0.42478231784314502 -0.38643128255249681 0 -0.43479631603355468 -0.39077639303142497 0 -0.42478231784314502 -0.38643128255249681 0 -0.43479631603355468 -0.39077639303142497 0 -0.42870657106664078 -0.39987574649354879 0 -0.44332653075004852 -0.401690115615219 0 -0.43479631603355468 -0.39077639303142497 0 -0.42870657106664078 -0.39987574649354879 0 -0.41657232816672918 -0.41306671883907142 0 -0.40962993039643741 -0.3898634720616666 0 -0.3946356370269814 -0.39577424904278191 0 -0.42478231784314502 -0.38643128255249681 0 -0.42870657106664078 -0.39987574649354879 0 -0.40962993039643741 -0.3898634720616666 0 -0.41657232816672918 -0.41306671883907142 0 -0.42870657106664078 -0.39987574649354879 0 -0.40962993039643741 -0.3898634720616666 0 -0.42478231784314502 -0.38643128255249681 0 -0.40962993039643741 -0.3898634720616666 0 -0.41656514696884139 -0.37636588688318029 0 -0.40962993039643741 -0.3898634720616666 0 -0.41656514696884139 -0.37636588688318029 0 -0.40465459864295228 -0.37650109000307358 0 -0.39431275766669582 -0.38061373190328529 0 -0.40465459864295228 -0.37650109000307358 0 -0.3968495855878465 -0.36923685638487008 0 -0.40962993039643741 -0.3898634720616666 0 -0.39431275766669582 -0.38061373190328529 0 -0.40465459864295228 -0.376501090003
[...]
<PointData Scalars="" Vectors="displacement," Tensors="">
<DataArray type="Float64" Name="displacement" NumberOfComponents="3" format="ascii">
-0.074999550386950178 2.0708810511885068e-07 0 -0.0749985151226467 -4.1836065488890389e-07 0 -0.072754863950680551 7.0307603524299351e-08 0 -0.0749985151226467 -4.1836065488890389e-07 0 -0.072754863950680551 7.0307603524299351e-08 0 -0.069391259467664126 6.2834394532327059e-07 0 -0.074993364704295407 -1.0832646819987613e-06 0 -0.072238487139358487 -0.00010038955204504488 0 -0.074995728803256431 -1.3111560362286489e-06 0 -0.073151824863144865 -0.00053870442616771514 0 -0.072049703552146765 -0.00063741701594167554 0 -0.074995728803256431 -1.3111560362286489e-06 0 -0.073151824863144865 -0.00053870442616771514 0 -0.074998890961306214 -9.5699841957969271e-08 0 -0.073151824863144865 -0.00053870442616771514 0 -0.071245722805569817 -0.00045405386624357969 0 -0.071858619127560933 -0.00062034549997933106 0 -0.073151824863144865 -0.00053870442616771514 0 -0.072049703552146765 -0.00063741701594167554 0 -0.071245722805569817 -0.00045405386624357969 0 -0.072238487139358487 -0.00010038955204504488 0 -0.06939467817714691 7.1454690756498686e-07 0 -0.072049703552146765 -0.00063741701594167554 0 -0.069386852205085975 -2.3962272227705818e-06 0 -0.071245722805569817 -0.00045405386624357969 0 -0.069386852205085975 -2.3962272227705818e-06 0 -0.071245722805569817 -0.00045405386624357969 0 -0.069405648291719968 -0.0004035572182111014 0 -0.071245722805569817 -0.00045405386624357969 0 -0.069405648291719968 -0.0004035572182111014 0 -0.071858619127560933 -0.00062034549997933106 0 -0.070124678640205218 -0.00034198010458488408 0 -0.069405648291719968 -0.0004035572182111014 0 -0.071858619127560933 -0.00062034549997933106 0 -0.070124678640205218 -0.00034198010458488408 0 -0.069405648291719968 -0.0004035572182111014 0 -0.067996042247864041 -0.00013908958099097019 0 -0.069405648291719968 -0.0004035572182111014 0 -0.064916339695281031 -5.0346032908587041e-07 0 -0.067996042247864041 -0.00013908958099097019 0 -0.069386852205085975 -2.3962272227705818e-06 0 -0.069405648291719968 -0.0004035572182111014 0 -0.064916339695281031 -5.0346032908587041e-07 0 -0.071347078047357362 -0.00030047090800671301 0 -0.072380616812742854 4.9239605497699059e-05 0 -0.071272487892901457 0.00028514165973833025 0 -0.070124678640205218 -0.00034198010458488408 0 -0.071347078047357362 -0.00030047090800671301 0 -0.071858619127560933 -0.00062034549997933106 0 -0.070124678640205218 -0.00034198010458488408 0 -0.071347078047357362 -0.00030047090800671301 0 -0.069992386824808878 0.00021995976637755117 0 -0.071347078047357362 -0.00030047090800671301 0 -0.071858619127560933 -0.00062034549997933106 0 -0.072811133924874108 -0.00072955927516884969 0 -0.071347078047357362 -0.00030047090800671301 0 -0.072811133924874108 -0.00072955927516884969 0 -0.072380616812742854 4.9239605497699059e-05 0 -0.074121507651249544 -0.00027820077360831878 0 -0.073764377516788826 -7.8436839109779659e-05 0 -0.071858619127560933 -0.00062034549997933106 0 -0.072811133924874108 -0.00072955927516884969 0 -0.073597950055014461 -0.00045327607410441191 0 -0.073151824863144865 -0.00053870442616771514 0 -0.071858619127560933 -0.00062034549997933106 0 -0.073597950055014461 -0.00045327607410441191 0 -0.073151824863144865 -0.00053870442616771514 0 -0.073597950055014461 -0.00045327607410441191 0 -0.074998890961306214 -9.5699841957969271e-08 0 -0.073597950055014461 -0.00045327607410441191 0 -0.074998890961306214 -9.5699841957969271e-08 0 -0.074996830947602622 -6.2581808350545459e-07 0 -0.074121507651249544 -0.00027820077360831878 0 -0.074998375393563202 -5.1327938399847014e-07 0 -0.074148536612795371 -0.00017922383475987478 0 -0.074999463548435882 -7.6471365655714341e-08 0 -0.07464462549880721 -9.7219967929235669e-05 0 -0.072811133924874108 -0.00072955927516884969 0 -0.073597950055014461 -0.00045327607410441191 0 -0.074996830947602622 -6.2581808350545459e-07 0 -0.074999463548435882 -7.6471365655714341e-08 0 -0.07464462549880721 -9.7219967929235669e-05 0 -0.074999317285692341 -1.8860483797124435e-07 0 -0.07464462549880721 -9.7219967929235669e-05 0 -0.074999317285692341 -1.8860483797124435e-07 0 -0.074427966483203156 -0.00016537827489763063 0 -0.074999317285692341 -1.8860483797124435e-07 0 -0.074427966483203156 -0.00016537827489763063 0 -0.074817613633761174 -0.00011128425780250545 0 -0.074148536612795371 -0.00017922383475987478 0 -0.07464462549880721 -9.7219967929235669e-05 0 -0.074427966483203156 -0.00016537827489763063 0 -0.074999354244818822 -1.489948035266774e-07 0 -0.074824723565428186 -0.00012705188084444644 0 -0.074708886799802157 -9.8227118027284337e-05 0 -0.073338682081192944 0.00039604692430123646 0 -0.073646168173959053 0.00019991169874937316 0 -0.074999354244818822 -1.489948035266774e-07 0 -0.074817613633761174 -0.00011128425780250545 0 -0.074824723565428186 -0.00012705188084444644 0 -0.074999317285692341 -1.8860483797124435e-07 0 -0.074999354244818822 -1.489948035266774e-07 0 -0.074817613633761174 -0.00011128425780250545 0 -0.074427966483203156 -0.00016537827489763063 0 -0.074817613633761174 -0.00011128425780250545 0 -0.074824723565428186 -0.00012705188084444644 0 -0.074427966483203156 -0.00016537827489763063 0 -0.074824723565428186 -0.00012705188084444644 0 -0.074249182523073012 3.1095146173885256e-06 0 -0.072219393662005429 0.00032586411383039144 0 -0.073897906393350685 0.00023628981111715056 0 -0.073156386062613696 0.00084592456021568326 0 -0.072219393662005429 0.00032586411383039144 0 -0.074708886799802157 -9.8227118027284337e-05 0 -0.073897906393350685 0.00023628981111715056 0 -0.071960717825290108 0.0016872142246355042 0 -0.073156386062613696 0.00084592456021568326 0 -0.072845480633215901 0.001608803742400348 0 -0.072219393662005429 0.00032586411383039144 0 -0.071960717825290108 0.0016872142246355042 0 -0.073156386062613696 0.00084592456021568326 0 -0.073338682081192944 0.00039604692430123646 0 -0.072779439333186868 0.00086074613915687452 0 -0.072219393662005429 0.00032586411383039144 0 -0.071960717825290108 0.0016872142246355042 0 -0.070778822383783163 0.001558592700756453 0 -0.07102072360131248 0.0022951675557437603 0 -0.07039753486797444 0.0021903209611136777 0 -0.071033887871933057 0.0029329145233264659 0 -0.071960717825290108 0.0016872142246355042 0 -0.07102072360131248 0.0022951675557437603 0 -0.071346189548633199 0.0026738580612260046 0 -0.071960717825290108 0.0016872142246355042 0 -0.07102072360131248 0.0022951675557437603 0 -0.070778822383783163 0.001558592700756453 0 -0.071960717825290108 0.0016872142246355042 0 -0.071899501695763521 0.0026387287314320533 0 -0.071346189548633199 0.0026738580612260046 0 -0.071960717825290108 0.0016872142246355042 0 -0.071899501695763521 0.0026387287314320533 0 -0.072845480633215901 0.001608803742400348 0 -0.074148536612795371 -0.00017922383475987478 0 -0.073576087679739208 -0.00011569016779673537 0 -0.072380616812742854 4.9239605497699059e-05 0 -0.074148536612795371 -0.00017922383475987478 0 -0.074427966483203156 -0.00016537827489763063 0 -0.073576087679739208 -0.00011569016779673537 0 -0.073576087679739208 -0.00011569016779673537 0 -0.074249182523073012 3.1095146173885256e-06 0 -0.073646873234583965 0.00018157807579025604 0 -0.074427966483203156 -0.00016537827489763063 0 -0.073576087679739208 -0.00011569016779673537 0 -0.074249182523073012 3.1095146173885256e-06 0 -0.07102072360131248 0.0022951675557437603 0 -0.070778822383783163 0.001558592700756453 0 -0.07039753486797444 0.0021903209611136777 0 -0.072779439333186868 0.00086074613915687452 0 -0.072489969320633979 0.0011693883903313548 0 -0.072489969320633979 0.0011693883903313548 0 -0.072640244401145498 0.00097440629902542978 0 -0.073576087679739208 -0.00011569016779673537 0 -0.072644980905621659 0.00035092117019840894 0 -0.072380616812742854 4.9239605497699059e-05 0 -0.073576087679739208 -0.00011569016779673537 0 -0.073646873234583965 0.00018157807579025604 0 -0.072644980905621659 0.00035092117019840894 0 -0.072644980905621659 0.00035092117019840894 0 -0.072380616812742854 4.9239605497699059e-05 0 -0.072027538233535998 0.00046814833273287797 0 -0.072027538233535998 0.00046814833273287797 0 -0.072288386470833646 0.00067662091649658854 0 -0.071438242488639433 0.0008627833620171812 0 -0.072644980905621659 0.00035092117019840894 0 -0.072027538233535998 0.00046814833273287797 0 -0.072288386470833646 0.00067662091649658854 0 -0.07039753486797444 0.0021903209611136777 0 -0.070845581354865253 0.0032671348192799565 0 -0.071033887871933057 0.0029329145233264659 0 -0.072847742060366608 0.00011712294182952261 0 -0.072644980905621659 0.00035092117019840894 0 -0.072288386470833646 0.00067662091649658854 0 -0.072847742060366608 0.00011712294182952261 0 -0.072288386470833646 0.00067662091649658854 0 -0.072331544012924784 0.00098685017476755747 0 -0.072489969320633979 0.0011693883903313548 0 -0.071909089764264231 0.0016848665273154634 0 -0.072288386470833646 0.00067662091649658854 0 -0.072331544012924784 0.00098685017476755747 0 -0.071824608624847019 0.0011183532954971464 0 -0.072331544012924784 0.00098685017476755747 0 -0.071824608624847019 0.0011183532954971464 0 -0.071443850500810355 0.0016682072148206514 0 -0.071824608624847019 0.0011183532954971464 0 -0.071443850500810355 0.0016682072148206514 0 -0.071438242488639433 0.0008627833620171812 0 -0.072288386470833646 0.00067662091649658854 0 -0.071824608624847019 0.0011183532954971464 0 -0.071438242488639433 0.0008627833620171812 0 -0.071899501695763521 0.0026387287314320533 0 -0.0712120001927007 0.003078502769141768 0 -0.07110197277823517 0.0034428909521681864 0 -0.071899501695763521 0.0026387287314320533 0 -0.0712120001927007 0.003078502769141768 0 -0.071346189548633199 0.0026738580612260046 0 -0.0712120001927007 0.003078502769141768 0 -0.071346189548633199 0.0026738580612260046 0 -0.071033887871933057 0.0029329145233264659 0 -0.07102072360131248 0.0022951675557437603 0 -0.071346189548633199 0.0026738580612260046 0 -0.071033887871933057 0.0029329145233264659 0 -0.070845581354865253 0.0032671348192799565 0 -0.070895699566506085 0.0033410327159092918 0 -0.070851740298475865 0.0030054712032914852 0 -0.0712120001927007 0.003078502769141768 0 -0.071033887871933057 0.0029329145233264659 0 -0.070895699566506085 0.0033410327159092918 0 -0.070845581354865253 0.0032671348192799565 0 -0.071033887871933057 0.0029329145233264659 0 -0.070895699566506085 0.0033410327159092918 0 -0.0712120001927007 0.003078502769141768 0 -0.070895699566506085 0.0033410327159092918 0 -0.07110197277823517 0.0034428909521681864 0 -0.070895699566506085 0.0033410327159092918 0 -0.07110197277823517 0.0034428909521681864 0 -0.070570333627180695 0.0034526446744985698 0 -0.07032429518873673 0.0030351726321084915 0 -0.070570333627180695 0.0034526446744985698 0 -0.069877337005916487 0.003223822922641075 0 -0.070895699566506085 0.0033410327159092918 0 -0.07032429518873673 0.0030351726321084915 0 -0.070570333627180695 0.0034526446744985698 0 -0.070895699566506085 0.0033410327159092918 0 -0.07032429518873673 0.0030351726321084915 0 -0.070851740298475865 0.0030054712032914852 0 -0.070851740298475865 0.0030054712032914852 0 -0.0712007144853921 0.0026965429339295085 0 -0.070707930872858746 0.0020682746817437293 0 -0.070851740298475865 0.0030054712032914852 0 -0.069844643902720299 0.0019711502516315512 0 -0.070707930872858746 0.0020682746817437293 0 -0.07032429518873673 0.0030351726321084915 0 -0.070851740298475865 0.0030054712032914852 0 -0.069844643902720299 0.0019711502516315512 0 -0.07032429518873673 0.0030351726321084915 0 -0.069844643902720299 0.0019711502516315512 0 -0.069414930992413387 0.0025202029379128108 0 -0.072331544012924784 0.00098685017476755747 0 -0.071443850500810355 0.0016682072148206514 0 -0.071626754386331357 0.0020351244746658614 0 -0.070845581354865253 0.0032671348192799565 0 -0.070851740298475865 0.0030054712032914852 0 -0.0712007144853921 0.0026965429339295085 0 -0.071909089764264231 0.0016848665273154634 0 -0.07161625976626923 0.0019048994522977633 0 -0.071626754386331357 0.0020351244746658614 0 -0.071281030104696899 0.0020972306614629906 0 -0.071233794042698542 0.0019276567854806532 0 -0.071281030104696899 0.0020972306614629906 0 -0.070618172998320683 0.0022532504677840589 0 -0.071025766474041754 0.0022566227328779114 0 -0.071443850500810355 0.0016682072148206514 0 -0.071281030104696899 0.0020972306614629906 0 -0.070618172998320683 0.0022532504677840589 0 -0.071443850500810355 0.0016682072148206514 0 -0.071626754386331357 0.0020351244746658614 0 -0.071281030104696899 0.0020972306614629906 0 -0.070618172998320683 0.0022532504677840589 0 -0.070398404124142513 0.0015205189687917293 0 -0.069263310302879383 0.0023064527901847068 0 -0.071443850500810355 0.0016682072148206514 0 -0.070618172998320683 0.0022532504677840589 0 -0.070398404124142513 0.0015205189687917293 0 -0.070398404124142513 0.0015205189687917293 0 -0.069263310302879383 0.0023064527901847068 0 -0.068589073546786741 0.0017017738945223795 0 -0.070618172998320683 0.0022532504677840589 0 -0.069263310302879383 0.0023064527901847068 0 -0.069604809919675131 0.0027863364521882382 0 -0.069263310302879383 0.0023064527901847068 0 -0.068127468438992561 0.0028815798479986748 0 -0.069604809919675131 0.0027863364521882382 0 -0.068127468438992561 0.0028815798479986748 0 -0.066540252236704497 0.0025658369873799466 0 -0.067867625309099608 0.0023006820627941263 0 -0.069263310302879383 0.0023064527901847068 0 -0.068127468438992561 0.0028815798479986748 0 -0.067867625309099608 0.0023006820627941263 0 -0.058703252713924896 -0.00022210345265500053 0 -0.056173362495315425 0.0011788179504994343 0 -0.058895471382181548 2.5148751659379518e-05 0 -0.060439626257296722 2.0979735254276255e-06 0 -0.055964426392342517 -4.7883230454249702e-07 0 -0.058895471382181548 2.5148751659379518e-05 0 -0.056189513410988857 0.00010307884525365265 0 -0.055964426392342517 -4.7883230454249702e-07 0 -0.068127468438992561 0.0028815798479986748 0 -0.066540252236704497 0.0025658369873799466 0 -0.067028418387988731 0.0034847367927708464 0 -0.058703252713924896 -0.00022210345265500053 0 -0.059570167850659952 -0.00098116987898287829 0 -0.066540252236704497 0.0025658369873799466 0 -0.067867625309099608 0.0023006820627941263 0 -0.066931584117050108 0.0017032576837649497 0 -0.058895471382181548 2.5148751659379518e-05 0 -0.060439626257296722 2.0979735254276255e-06 0 -0.064184239833052964 0.00037025889349845328 0 -0.066540252236704497 0.0025658369873799466 0 -0.066931584117050108 0.0017032576837649497 0 -0.064184239833052964 0.00037025889349845328 0 -0.069263310302879383 0.0023064527901847068 0 -0.067867625309099608 0.0023006820627941263 0 -0.068589073546786741 0.0017017738945223795 0 -0.067867625309099608 0.0023006820627941263 0 -0.066931584117050108 0.0017032576837649497 0 -0.068589073546786741 0.0017017738945223795 0 -0.068589073546786741 0.0017017738945223795 0 -0.068019016038957658 0.00057221655179339609 0 -0.069618662416788116 0.00094115823094539539 0 -0.066931584117050108 0.0017032576837649497 0 -0.068019016038957658 0.00057221655179339609 0 -0.064184239833052964 0.00037025889349845328 0 -0.066931584117050108 0.0017032576837649497 0 -0.068589073546786741 0.0017017738945223795 0 -0.068019016038957658 0.00057221655179339609 0 -0.068019016038957658 0.00057221655179339609 0 -0.064184239833052964 0.00037025889349845328 0 -0.066172586155819502 0.00014241565503047532 0 -0.060439626257296722 2.0979735254276255e-06 0 -0.064184239833052964 0.00037025889349845328 0 -0.064916339695281031 -5.0346032908587041e-07 0 -0.064184239833052964 0.00037025889349845328 0 -0.066172586155819502 0.00014241565503047532 0 -0.064916339695281031 -5.0346032908587041e-07 0 -0.066172586155819502 0.00014241565503047532 0 -0.064916339695281031 -5.0346032908587041e-07 0 -0.067996042247864041 -0.00013908958099097019 0 -0.070124678640205218 -0.00034198010458488408 0 -0.067996042247864041 -0.00013908958099097019 0 -0.069992386824808878 0.00021995976637755117 0 -0.068019016038957658 0.00057221655179339609 0 -0.067996042247864041 -0.00013908958099097019 0 -0.069992386824808878 0.00021995976637755117 0 -0.068019016038957658 0.00057221655179339609 0 -0.066172586155819502 0.00014241565503047532 0 -0.067996042247864041 -0.00013908958099097019 0 -0.071347078047357362 -0.00030047090800671301 0 -0.069992386824808878 0.00021995976637755117 0 -0.071272487892901457 0.00028514165973833025 0 -0.069992386824808878 0.00021995976637755117 0 -0.070617373014628324 0.00075468768423614927 0 -0.069618662416788116 0.00094115823094539539 0 -0.069992386824808878 0.00021995976637755117 0 -0.071272487892901457 0.00028514165973833025 0 -0.070617373014628324 0.00075468768423614927 0 -0.072380616812742854 4.9239605497699059e-05 0 -0.072027538233535998 0.00046814833273287797 0 -0.071272487892901457 0.00028514165973833025 0 -0.072027538233535998 0.00046814833273287797 0 -0.071272487892901457 0.00028514165973833025 0 -0.071438242488639433 0.0008627833620171812 0 -0.071272487892901457 0.00028514165973833025 0 -0.070617373014628324 0.00075468768423614927 0 -0.071438242488639433 0.0008627833620171812 0 -0.071443850500810355 0.0016682072148206514 0 -0.070398404124142513 0.0015205189687917293 0 -0.071438242488639433 0.0008627833620171812 0 -0.070398404124142513 0.0015205189687917293 0 -0.070617373014628324 0.00075468768423614927 0 -0.071438242488639433 0.0008627833620171812 0 -0.070398404124142513 0.0015205189687917293 0 -0.070617373014628324 0.00075468768423614927 0 -0.069618662416788116 0.00094115823094539539 0 -0.070398404124142513 0.0015205189687917293 0 -0.068589073546786741 0.0017017738945223795 0 -0.069618662416788116 0.00094115823094539539 0 -0.068019016038957658 0.00057221655179339609 0 -0.069992386824808878 0.00021995976637755117 0 -0.069618662416788116 0.00094115823094539539 0 -0.074762946349032133 -6.8506386593542712e-05 0 -0.074777054460946013 -1.4690093380933892e-05 0 -0.074758003852192209 -5.1170288662510656e-05 0 -0.074762946349032133 -6.8506386593542712e-05 0 -0.074816957405745427 2.072185238814672e-05 0 -0.074777054460946013 -1.4690093380933892e-05 0 -0.074762946349032133 -6.8506386593542712e-05 0 -0.074758003852192209 -5.1170288662510656e-05 0 -0.074707226764019544 -0.00012172358359158452 0 -0.074762946349032133 -6.8506386593542712e-05 0 -0.074816957405745427 2.072185238814672e-05 0 -0.074876657239596939 2.3516053261702852e-05 0 -0.074816957405745427 2.072185238814672e-05 0 -0.074876657239596939 2.3516053261702852e-05 0 -0.07488565755987385 0.00012582868311504665 0 -0.074876657239596939 2.3516053261702852e-05 0 -0.074847513925721074 4.6370430614205336e-05 0 -0.07471465175397024 -9.6763495426742716e-05 0 -0.074762946349032133 -6.8506386593542712e-05 0 -0.074876657239596939 2.3516053261702852e-05 0 -0.07471465175397024 -9.6763495426742716e-05 0 -0.074762946349032133 -6.8506386593542712e-05 0 -0.07471465175397024 -9.6763495426742716e-05 0 -0.074707226764019544 -0.00012172358359158452 0 -0.074847513925721074 4.6370430614205336e-05 0 -0.074999997896737669 -3.008244460400056e-08 0 -0.07499925717392375 4.4310887807132283e-07 0 -0.074847513925721074 4.6370430614205336e-05 0 -0.074999997896737669 -3.008244460400056e-08 0 -0.074959693185790169 5.5814704340556051e-05 0 -0.074876657239596939 2.3516053261702852e-05 0 -0.074847513925721074 4.6370430614205336e-05 0 -0.074959693185790169 5.5814704340556051e-05 0 -0.074876657239596939 2.3516053261702852e-05 0 -0.074959693185790169 5.5814704340556051e-05 0 -0.074947072257684821 0.00012963912097727789 0 -0.074959693185790169 5.5814704340556051e-05 0 -0.074999935966961737 8.3278455545591136e-08 0 -0.074947072257684821 0.00012963912097727789 0 -0.074999997896737669 -3.008244460400056e-08 0 -0.074959693185790169 5.5814704340556051e-05 0 -0.074999935966961737 8.3278455545591136e-08 0 -0.074999935966961737 8.3278455545591136e-08 0 -0.074947072257684821 0.00012963912097727789 0 -0.074939106101285194 0.00018026899296048101 0 -0.074947072257684821 0.00012963912097727789 0 -0.0748856575598