<?xml version="1.0"?>
<VTKFile type="UnstructuredGrid" version="0.1" byte_order="LittleEndian">
<UnstructuredGrid>
<Piece NumberOfPoints="30881" NumberOfCells="10862">
<Points>
<DataArray type="Float64" NumberOfComponents="3" format="ascii">
-0.49999999999999828 -0.48677703703187492 0 -0.5 -0.5 0 -0.48129281494584059 -0.49338851851593718 0 -0.5 -0.5 0 -0.48129281494584059 -0.49338851851593718 0 -0.46258562989168328 -0.5 0 -0.49999999999999828 -0.48677703703187492 0 -0.48129281494584059 -0.49338851851593718 0 -0.49999999999999828 -0.48677703703187492 0 -0.4824545428279598 -0.47451624516148783 0 -0.48129281494584059 -0.49338851851593718 0 -0.49999999999999828 -0.48677703703187492 0 -0.4824545428279598 -0.47451624516148783 0 -0.5 -0.46599539173150673 0 -0.4824545428279598 -0.47451624516148783 0 -0.46853075243710779 -0.48354990242643758 0 -0.46411508256092049 -0.46598235294430129 0 -0.4824545428279598 -0.47451624516148783 0 -0.48129281494584059 -0.49338851851593718 0 -0.46853075243710779 -0.48354990242643758 0 -0.48129281494584059 -0.49338851851593718 0 -0.46258562989168328 -0.5 0 -0.48129281494584059 -0.49338851851593718 0 -0.46258562989168328 -0.5 0 -0.46853075243710779 -0.48354990242643758 0 -0.46258562989168328 -0.5 0 -0.46853075243710779 -0.48354990242643758 0 -0.45147378687733691 -0.48362213557840178 0 -0.46853075243710779 -0.48354990242643758 0 -0.45147378687733691 -0.48362213557840178 0 -0.46411508256092049 -0.46598235294430129 0 -0.4457251648104853 -0.47020164095208389 0 -0.45147378687733691 -0.48362213557840178 0 -0.46411508256092049 -0.46598235294430129 0 -0.4457251648104853 -0.47020164095208389 0 -0.45147378687733691 -0.48362213557840178 0 -0.43513446131126993 -0.48199891714758791 0 -0.45147378687733691 -0.48362213557840178 0 -0.43275163025255442 -0.5 0 -0.43513446131126993 -0.48199891714758791 0 -0.46258562989168328 -0.5 0 -0.45147378687733691 -0.48362213557840178 0 -0.43275163025255442 -0.5 0 -0.4467190029717853 -0.45478934699519452 0 -0.4422915115958943 -0.43555510214664611 0 -0.43246707723660932 -0.44794326854796312 0 -0.4457251648104853 -0.47020164095208389 0 -0.4467190029717853 -0.45478934699519452 0 -0.46411508256092049 -0.46598235294430129 0 -0.4457251648104853 -0.47020164095208389 0 -0.4467190029717853 -0.45478934699519452 0 -0.43016578207734568 -0.46313500011938619 0 -0.4467190029717853 -0.45478934699519452 0 -0.46411508256092049 -0.46598235294430129 0 -0.47114575579794699 -0.4403844242888923 0 -0.4467190029717853 -0.45478934699519452 0 -0.47114575579794699 -0.4403844242888923 0 -0.4422915115958943 -0.43555510214664611 0 -0.47114575579794699 -0.4403844242888923 0 -0.4422915115958943 -0.43555510214664611 0 -0.46411508256092049 -0.46598235294430129 0 -0.47114575579794699 -0.4403844242888923 0 -0.48354307623736548 -0.45841843211146538 0 -0.4824545428279598 -0.47451624516148783 0 -0.46411508256092049 -0.46598235294430129 0 -0.48354307623736548 -0.45841843211146538 0 -0.4824545428279598 -0.47451624516148783 0 -0.48354307623736548 -0.45841843211146538 0 -0.5 -0.46599539173150673 0 -0.48354307623736548 -0.45841843211146538 0 -0.5 -0.46599539173150673 0 -0.49999999999999972 -0.44521374643113848 0 -0.47114575579794699 -0.4403844242888923 0 -0.49999999999999972 -0.44521374643113848 0 -0.47114575579794699 -0.4403844242888923 0 -0.49999999999999972 -0.44521374643113848 0 -0.48704432221743971 -0.42935617662229603 0 -0.47114575579794699 -0.4403844242888923 0 -0.48354307623736548 -0.45841843211146538 0 -0.49999999999999972 -0.44521374643113848 0 -0.49999999999999972 -0.44521374643113848 0 -0.48704432221743971 -0.42935617662229603 0 -0.5 -0.41591957503128979 0 -0.48704432221743971 -0.42935617662229603 0 -0.5 -0.41591957503128979 0 -0.47703153307181151 -0.41590696073786332 0 -0.5 -0.41591957503128979 0 -0.47703153307181151 -0.41590696073786332 0 -0.48817838912021821 -0.4022119694541284 0 -0.47114575579794699 -0.4403844242888923 0 -0.48704432221743971 -0.42935617662229603 0 -0.47703153307181151 -0.41590696073786332 0 -0.5 -0.38662540363144121 0 -0.47568202340906118 -0.39039593841591919 0 -0.4947615751445838 -0.37332156409002909 0 -0.47568202340906118 -0.39039593841591919 0 -0.4947615751445838 -0.37332156409002909 0 -0.5 -0.38662540363144121 0 -0.48817838912021821 -0.4022119694541284 0 -0.47568202340906118 -0.39039593841591919 0 -0.5 -0.41591957503128979 0 -0.5 -0.38662540363144121 0 -0.48817838912021821 -0.4022119694541284 0 -0.47703153307181151 -0.41590696073786332 0 -0.48817838912021821 -0.4022119694541284 0 -0.47568202340906118 -0.39039593841591919 0 -0.47703153307181151 -0.41590696073786332 0 -0.47568202340906118 -0.39039593841591919 0 -0.45660247167353862 -0.40747031274180939 0 -0.47568202340906118 -0.39039593841591919 0 -0.48030931097003587 -0.37191064435083931 0 -0.46669490250066459 -0.37481721741951951 0 -0.47568202340906118 -0.39039593841591919 0 -0.4947615751445838 -0.37332156409002909 0 -0.48030931097003587 -0.37191064435083931 0 -0.45332061783919553 -0.38729481725706361 0 -0.46669490250066459 -0.37481721741951951 0 -0.45095991715087752 -0.36968037302039969 0 -0.47568202340906118 -0.39039593841591919 0 -0.45332061783919553 -0.38729481725706361 0 -0.46669490250066459 -0.37481721741951951 0 -0.47568202340906118 -0.39039593841591919 0 -0.45660247167353862 -0.40747031274180939 0 -0.47568202340906118 -0.39039593841591919 0 -0.45332061783919553 -0.38729481725706361 0 -0.45660247167353862 -0.40747031274180939 0 -0.44332653075004852 -0.401690115615219 0 -0.44646247228389868 -0.41654464256061052 0 -0.42870657106664078 -0.39987574649354879 0 -0.45332061783919553 -0.38729481725706361 0 -0.44332653075004852 -0.401690115615219 0 -0.43479631603355468 -0.39077639303142497 0 -0.45332061783919553 -0.38729481725706361 0 -0.44332653075004852 -0.401690115615219 0 -0.45660247167353862 -0.40747031274180939 0 -0.45332061783919553 -0.38729481725706361 0 -0.43421362475025049 -0.37527491429266319 0 -0.43479631603355468 -0.39077639303142497 0 -0.45332061783919553 -0.38729481725706361 0 -0.43421362475025049 -0.37527491429266319 0 -0.45095991715087752 -0.36968037302039969 0 -0.47114575579794699 -0.4403844242888923 0 -0.45663439814062529 -0.42533932462455271 0 -0.4422915115958943 -0.43555510214664611 0 -0.47114575579794699 -0.4403844242888923 0 -0.47703153307181151 -0.41590696073786332 0 -0.45663439814062529 -0.42533932462455271 0 -0.45663439814062529 -0.42533932462455271 0 -0.45660247167353862 -0.40747031274180939 0 -0.44646247228389868 -0.41654464256061052 0 -0.47703153307181151 -0.41590696073786332 0 -0.45663439814062529 -0.42533932462455271 0 -0.45660247167353862 -0.40747031274180939 0 -0.44332653075004852 -0.401690115615219 0 -0.45660247167353862 -0.40747031274180939 0 -0.44646247228389868 -0.41654464256061052 0 -0.45660247167353862 -0.40747031274180939 0 -0.44646247228389868 -0.41654464256061052 0 -0.44646247228389868 -0.41654464256061052 0 -0.4375229199380159 -0.42454468706769971 0 -0.45663439814062529 -0.42533932462455271 0 -0.4375229199380159 -0.42454468706769971 0 -0.4422915115958943 -0.43555510214664611 0 -0.45663439814062529 -0.42533932462455271 0 -0.44646247228389868 -0.41654464256061052 0 -0.4375229199380159 -0.42454468706769971 0 -0.4375229199380159 -0.42454468706769971 0 -0.4422915115958943 -0.43555510214664611 0 -0.43077617074680319 -0.43406335077952207 0 -0.43077617074680319 -0.43406335077952207 0 -0.42550232634077589 -0.42345940056268039 0 -0.41950844772475421 -0.43888456563633732 0 -0.4375229199380159 -0.42454468706769971 0 -0.43077617074680319 -0.43406335077952207 0 -0.42550232634077589 -0.42345940056268039 0 -0.44646247228389868 -0.41654464256061052 0 -0.41657232816672918 -0.41306671883907142 0 -0.42870657106664078 -0.39987574649354879 0 -0.44646247228389868 -0.41654464256061052 0 -0.4375229199380159 -0.42454468706769971 0 -0.42550232634077589 -0.42345940056268039 0 -0.44646247228389868 -0.41654464256061052 0 -0.42550232634077589 -0.42345940056268039 0 -0.41657232816672918 -0.41306671883907142 0 -0.44646247228389868 -0.41654464256061052 0 -0.41657232816672918 -0.41306671883907142 0 -0.42550232634077589 -0.42345940056268039 0 -0.41657232816672918 -0.41306671883907142 0 -0.41333489101611293 -0.42699700567040988 0 -0.41657232816672918 -0.41306671883907142 0 -0.41333489101611293 -0.42699700567040988 0 -0.39893236021425188 -0.42931692235905211 0 -0.41333489101611293 -0.42699700567040988 0 -0.39893236021425188 -0.42931692235905211 0 -0.41950844772475421 -0.43888456563633732 0 -0.42550232634077589 -0.42345940056268039 0 -0.41333489101611293 -0.42699700567040988 0 -0.41950844772475421 -0.43888456563633732 0 -0.43421362475025049 -0.37527491429266319 0 -0.42478231784314502 -0.38643128255249681 0 -0.41656514696884139 -0.37636588688318029 0 -0.43421362475025049 -0.37527491429266319 0 -0.42478231784314502 -0.38643128255249681 0 -0.43479631603355468 -0.39077639303142497 0 -0.42478231784314502 -0.38643128255249681 0 -0.43479631603355468 -0.39077639303142497 0 -0.42870657106664078 -0.39987574649354879 0 -0.44332653075004852 -0.401690115615219 0 -0.43479631603355468 -0.39077639303142497 0 -0.42870657106664078 -0.39987574649354879 0 -0.41657232816672918 -0.41306671883907142 0 -0.40962993039643741 -0.3898634720616666 0 -0.3946356370269814 -0.39577424904278191 0 -0.42478231784314502 -0.38643128255249681 0 -0.42870657106664078 -0.39987574649354879 0 -0.40962993039643741 -0.3898634720616666 0 -0.41657232816672918 -0.41306671883907142 0 -0.42870657106664078 -0.39987574649354879 0 -0.40962993039643741 -0.3898634720616666 0 -0.42478231784314502 -0.38643128255249681 0 -0.40962993039643741 -0.3898634720616666 0 -0.41656514696884139 -0.37636588688318029 0 -0.40962993039643741 -0.3898634720616666 0 -0.41656514696884139 -0.37636588688318029 0 -0.40465459864295228 -0.37650109000307358 0 -0.39431275766669582 -0.38061373190328529 0 -0.40465459864295228 -0.37650109000307358 0 -0.3968495855878465 -0.36923685638487008 0 -0.40962993039643741 -0.3898634720616666 0 -0.39431275766669582 -0.38061373190328529 0 -0.40465459864295228 -0.376501090003
[...]
<PointData Scalars="" Vectors="displacement," Tensors="">
<DataArray type="Float64" Name="displacement" NumberOfComponents="3" format="ascii">
1.0431314944585442e-06 -0.073023079771140809 0 -6.95642976804467e-07 -0.07499581418346514 0 3.3891539111631121e-07 -0.074940385246223637 0 -6.95642976804467e-07 -0.07499581418346514 0 3.3891539111631121e-07 -0.074940385246223637 0 3.4511030493263933e-07 -0.075001843215501601 0 2.3816080283043955e-07 -0.073018097886991734 0 -7.8547588858915051e-06 -0.073957028585823842 0 -2.9774665132168374e-07 -0.073011968989670717 0 -0.00040316822187787482 -0.071886645516155645 0 -0.00038145148683661729 -0.072614153835210249 0 -2.9774665132168374e-07 -0.073011968989670717 0 -0.00040316822187787482 -0.071886645516155645 0 -2.2005972384457563e-06 -0.069900039553895912 0 -0.00040316822187787482 -0.071886645516155645 0 -0.00024451893701024624 -0.073375568504514349 0 -0.00033971972480822238 -0.07285351241487098 0 -0.00040316822187787482 -0.071886645516155645 0 -0.00038145148683661729 -0.072614153835210249 0 -0.00024451893701024624 -0.073375568504514349 0 -7.8547588858915051e-06 -0.073957028585823842 0 -3.5466138534285678e-07 -0.074998233497738015 0 -0.00038145148683661729 -0.072614153835210249 0 -2.568555373962102e-06 -0.074994931522638628 0 -0.00024451893701024624 -0.073375568504514349 0 -2.568555373962102e-06 -0.074994931522638628 0 -0.00024451893701024624 -0.073375568504514349 0 -0.00024361882368201035 -0.074044354705337448 0 -0.00024451893701024624 -0.073375568504514349 0 -0.00024361882368201035 -0.074044354705337448 0 -0.00033971972480822238 -0.07285351241487098 0 -0.00037954242544509112 -0.073469001785153726 0 -0.00024361882368201035 -0.074044354705337448 0 -0.00033971972480822238 -0.07285351241487098 0 -0.00037954242544509112 -0.073469001785153726 0 -0.00024361882368201035 -0.074044354705337448 0 -0.00018963470183158335 -0.074084327795501073 0 -0.00024361882368201035 -0.074044354705337448 0 6.5453625427820665e-07 -0.074998936895846691 0 -0.00018963470183158335 -0.074084327795501073 0 -2.568555373962102e-06 -0.074994931522638628 0 -0.00024361882368201035 -0.074044354705337448 0 6.5453625427820665e-07 -0.074998936895846691 0 -0.00047501573577990577 -0.072769191537669073 0 -0.0015206122971820897 -0.071534479323929409 0 -0.0010277452865474826 -0.072500571205050865 0 -0.00037954242544509112 -0.073469001785153726 0 -0.00047501573577990577 -0.072769191537669073 0 -0.00033971972480822238 -0.07285351241487098 0 -0.00037954242544509112 -0.073469001785153726 0 -0.00047501573577990577 -0.072769191537669073 0 -0.0005983490419616004 -0.073204424977135904 0 -0.00047501573577990577 -0.072769191537669073 0 -0.00033971972480822238 -0.07285351241487098 0 0.00055852132676607728 -0.0723497805574667 0 -0.00047501573577990577 -0.072769191537669073 0 0.00055852132676607728 -0.0723497805574667 0 -0.0015206122971820897 -0.071534479323929409 0 -0.00032325094988902683 -0.068567589713080121 0 -0.00046890449088267443 -0.069731734443111718 0 -0.00033971972480822238 -0.07285351241487098 0 0.00055852132676607728 -0.0723497805574667 0 -0.00037330883588978424 -0.070799562957371415 0 -0.00040316822187787482 -0.071886645516155645 0 -0.00033971972480822238 -0.07285351241487098 0 -0.00037330883588978424 -0.070799562957371415 0 -0.00040316822187787482 -0.071886645516155645 0 -0.00037330883588978424 -0.070799562957371415 0 -2.2005972384457563e-06 -0.069900039553895912 0 -0.00037330883588978424 -0.070799562957371415 0 -2.2005972384457563e-06 -0.069900039553895912 0 4.1529635836001377e-06 -0.066789203421913718 0 -0.00032325094988902683 -0.068567589713080121 0 -8.0570607640310064e-07 -0.066783904814667755 0 -0.0017705877603725949 -0.064714350092686543 0 -4.988647258718176e-07 -0.066774795759077576 0 -0.00072391654283324083 -0.064380203386225271 0 0.00055852132676607728 -0.0723497805574667 0 -0.00037330883588978424 -0.070799562957371415 0 4.1529635836001377e-06 -0.066789203421913718 0 -4.988647258718176e-07 -0.066774795759077576 0 -0.00072391654283324083 -0.064380203386225271 0 -1.8718793595839653e-06 -0.062390537761252987 0 -0.00072391654283324083 -0.064380203386225271 0 -1.8718793595839653e-06 -0.062390537761252987 0 -7.0482113523719553e-05 -0.063889783595302757 0 -1.8718793595839653e-06 -0.062390537761252987 0 -7.0482113523719553e-05 -0.063889783595302757 0 0.00017518379287180088 -0.061567109766075073 0 -0.0017705877603725949 -0.064714350092686543 0 -0.00072391654283324083 -0.064380203386225271 0 -7.0482113523719553e-05 -0.063889783595302757 0 3.2841510980043043e-06 -0.057993542127545247 0 0.0014048586370166856 -0.062484159590567731 0 0.00050679160331215038 -0.055674375407321133 0 -8.0360657204581808e-05 -0.05899891363295881 0 -4.0181402634341273e-05 -0.05847748093068271 0 3.2841510980043043e-06 -0.057993542127545247 0 0.00017518379287180088 -0.061567109766075073 0 0.0014048586370166856 -0.062484159590567731 0 -1.8718793595839653e-06 -0.062390537761252987 0 3.2841510980043043e-06 -0.057993542127545247 0 0.00017518379287180088 -0.061567109766075073 0 -7.0482113523719553e-05 -0.063889783595302757 0 0.00017518379287180088 -0.061567109766075073 0 0.0014048586370166856 -0.062484159590567731 0 -7.0482113523719553e-05 -0.063889783595302757 0 0.0014048586370166856 -0.062484159590567731 0 0.0013643033571167089 -0.066803214544390352 0 0.00050584138225812157 -0.051062940647125868 0 0.00026367865797373332 -0.052193807867607883 0 0.00036041496187462854 -0.051245472838047743 0 0.00050584138225812157 -0.051062940647125868 0 0.00050679160331215038 -0.055674375407321133 0 0.00026367865797373332 -0.052193807867607883 0 -0.00044124703990440213 -0.051871550054243425 0 0.00036041496187462854 -0.051245472838047743 0 0.00050669451313318137 -0.051821570725507318 0 0.00050584138225812157 -0.051062940647125868 0 -0.00044124703990440213 -0.051871550054243425 0 0.00036041496187462854 -0.051245472838047743 0 -8.0360657204581808e-05 -0.05899891363295881 0 -0.00060921016159882569 -0.060759237308612858 0 0.00050584138225812157 -0.051062940647125868 0 -0.00044124703990440213 -0.051871550054243425 0 -0.0024244440781922361 -0.051613606512288843 0 -0.002207140069073567 -0.052897689527245634 0 -0.0039243307461357567 -0.052536111564964301 0 -0.0024182411954541791 -0.054623317158375005 0 -0.00044124703990440213 -0.051871550054243425 0 -0.002207140069073567 -0.052897689527245634 0 -0.0011479115728251755 -0.05376829729930168 0 -0.00044124703990440213 -0.051871550054243425 0 -0.002207140069073567 -0.052897689527245634 0 -0.0024244440781922361 -0.051613606512288843 0 -0.00044124703990440213 -0.051871550054243425 0 0.0003732511063228461 -0.053560395060613004 0 -0.0011479115728251755 -0.05376829729930168 0 -0.00044124703990440213 -0.051871550054243425 0 0.0003732511063228461 -0.053560395060613004 0 0.00050669451313318137 -0.051821570725507318 0 -0.0017705877603725949 -0.064714350092686543 0 -0.00030687048318971762 -0.06757772707009771 0 -0.0015206122971820897 -0.071534479323929409 0 -0.0017705877603725949 -0.064714350092686543 0 -7.0482113523719553e-05 -0.063889783595302757 0 -0.00030687048318971762 -0.06757772707009771 0 -0.00030687048318971762 -0.06757772707009771 0 0.0013643033571167089 -0.066803214544390352 0 0.00084356498391569977 -0.069377711024280669 0 -7.0482113523719553e-05 -0.063889783595302757 0 -0.00030687048318971762 -0.06757772707009771 0 0.0013643033571167089 -0.066803214544390352 0 -0.002207140069073567 -0.052897689527245634 0 -0.0024244440781922361 -0.051613606512288843 0 -0.0039243307461357567 -0.052536111564964301 0 -0.00060921016159882569 -0.060759237308612858 0 -0.00092668980262780663 -0.062036752015535997 0 -0.00092668980262780663 -0.062036752015535997 0 -0.0015753824580802746 -0.063313231779216106 0 -0.00030687048318971762 -0.06757772707009771 0 -0.00070215667819692777 -0.07184239235396378 0 -0.0015206122971820897 -0.071534479323929409 0 -0.00030687048318971762 -0.06757772707009771 0 0.00084356498391569977 -0.069377711024280669 0 -0.00070215667819692777 -0.07184239235396378 0 -0.00070215667819692777 -0.07184239235396378 0 -0.0015206122971820897 -0.071534479323929409 0 -0.0012325193583829824 -0.072226985838741389 0 -0.0012325193583829824 -0.072226985838741389 0 -0.0011750013989696257 -0.072192891776741402 0 -0.0012471845842055725 -0.07246579100701922 0 -0.00070215667819692777 -0.07184239235396378 0 -0.0012325193583829824 -0.072226985838741389 0 -0.0011750013989696257 -0.072192891776741402 0 -0.0039243307461357567 -0.052536111564964301 0 -0.0046086175896768028 -0.056363909263892592 0 -0.0024182411954541791 -0.054623317158375005 0 -0.00050536296417686658 -0.071719470400515919 0 -0.00070215667819692777 -0.07184239235396378 0 -0.0011750013989696257 -0.072192891776741402 0 -0.00050536296417686658 -0.071719470400515919 0 -0.0011750013989696257 -0.072192891776741402 0 -0.0015608780992425924 -0.072330948467772341 0 -0.00092668980262780663 -0.062036752015535997 0 -0.0022617411438381101 -0.064262820482552496 0 -0.0011750013989696257 -0.072192891776741402 0 -0.0015608780992425924 -0.072330948467772341 0 -0.0014462107407800214 -0.072256730607268727 0 -0.0015608780992425924 -0.072330948467772341 0 -0.0014462107407800214 -0.072256730607268727 0 -0.001688591016599401 -0.071944673609553214 0 -0.0014462107407800214 -0.072256730607268727 0 -0.001688591016599401 -0.071944673609553214 0 -0.0012471845842055725 -0.07246579100701922 0 -0.0011750013989696257 -0.072192891776741402 0 -0.0014462107407800214 -0.072256730607268727 0 -0.0012471845842055725 -0.07246579100701922 0 0.0003732511063228461 -0.053560395060613004 0 -0.00073220582967742473 -0.055046174177022962 0 0.0005451172466346989 -0.056098126278414873 0 0.0003732511063228461 -0.053560395060613004 0 -0.00073220582967742473 -0.055046174177022962 0 -0.0011479115728251755 -0.05376829729930168 0 -0.00073220582967742473 -0.055046174177022962 0 -0.0011479115728251755 -0.05376829729930168 0 -0.0024182411954541791 -0.054623317158375005 0 -0.002207140069073567 -0.052897689527245634 0 -0.0011479115728251755 -0.05376829729930168 0 -0.0024182411954541791 -0.054623317158375005 0 -0.0046086175896768028 -0.056363909263892592 0 -0.0012488230484990473 -0.057513022162740138 0 -0.0022407380244858625 -0.060410138399579281 0 -0.00073220582967742473 -0.055046174177022962 0 -0.0024182411954541791 -0.054623317158375005 0 -0.0012488230484990473 -0.057513022162740138 0 -0.0046086175896768028 -0.056363909263892592 0 -0.0024182411954541791 -0.054623317158375005 0 -0.0012488230484990473 -0.057513022162740138 0 -0.00073220582967742473 -0.055046174177022962 0 -0.0012488230484990473 -0.057513022162740138 0 0.0005451172466346989 -0.056098126278414873 0 -0.0012488230484990473 -0.057513022162740138 0 0.0005451172466346989 -0.056098126278414873 0 0.00078722931512438922 -0.058371424799447874 0 0.00028198446805191454 -0.060472748970891853 0 0.00078722931512438922 -0.058371424799447874 0 0.0021932493148435124 -0.059969753031827278 0 -0.0012488230484990473 -0.057513022162740138 0 0.00028198446805191454 -0.060472748970891853 0 0.00078722931512438922 -0.058371424799447874 0 -0.0012488230484990473 -0.057513022162740138 0 0.00028198446805191454 -0.060472748970891853 0 -0.0022407380244858625 -0.060410138399579281 0 -0.0022407380244858625 -0.060410138399579281 0 -0.0049299108314136792 -0.061958787947416841 0 -0.0021624499069035049 -0.064713919507480275 0 -0.0022407380244858625 -0.060410138399579281 0 0.00048283050541154748 -0.064467257001557893 0 -0.0021624499069035049 -0.064713919507480275 0 0.00028198446805191454 -0.060472748970891853 0 -0.0022407380244858625 -0.060410138399579281 0 0.00048283050541154748 -0.064467257001557893 0 0.00028198446805191454 -0.060472748970891853 0 0.00048283050541154748 -0.064467257001557893 0 0.0021539907778616281 -0.062299559912598966 0 -0.0015608780992425924 -0.072330948467772341 0 -0.001688591016599401 -0.071944673609553214 0 -0.0028343410872096633 -0.071411579540456044 0 -0.0046086175896768028 -0.056363909263892592 0 -0.0022407380244858625 -0.060410138399579281 0 -0.0049299108314136792 -0.061958787947416841 0 -0.0022617411438381101 -0.064262820482552496 0 -0.0029452252957827964 -0.066247043782710804 0 -0.0028343410872096633 -0.071411579540456044 0 -0.0020519980706096095 -0.071022993194537018 0 -0.0026453136484944654 -0.069654753714027365 0 -0.0020519980706096095 -0.071022993194537018 0 -0.0013573620812779659 -0.071283248388992512 0 -0.0019965088594384953 -0.070201070276863758 0 -0.001688591016599401 -0.071944673609553214 0 -0.0020519980706096095 -0.071022993194537018 0 -0.0013573620812779659 -0.071283248388992512 0 -0.001688591016599401 -0.071944673609553214 0 -0.0028343410872096633 -0.071411579540456044 0 -0.0020519980706096095 -0.071022993194537018 0 -0.0013573620812779659 -0.071283248388992512 0 -0.0010627669468989242 -0.072357141383381951 0 -0.00064615381790843163 -0.071810684761710097 0 -0.001688591016599401 -0.071944673609553214 0 -0.0013573620812779659 -0.071283248388992512 0 -0.0010627669468989242 -0.072357141383381951 0 -0.0010627669468989242 -0.072357141383381951 0 -0.00064615381790843163 -0.071810684761710097 0 -0.00042651871304789376 -0.072702424799273566 0 -0.0013573620812779659 -0.071283248388992512 0 -0.00064615381790843163 -0.071810684761710097 0 -0.00074562694953553385 -0.070858494817984494 0 -0.00064615381790843163 -0.071810684761710097 0 3.6768556748929244e-05 -0.071316824224063921 0 -0.00074562694953553385 -0.070858494817984494 0 3.6768556748929244e-05 -0.071316824224063921 0 0.00097475081951850409 -0.072105386053311224 0 -9.2579200473810481e-05 -0.072224162434009573 0 -0.00064615381790843163 -0.071810684761710097 0 3.6768556748929244e-05 -0.071316824224063921 0 -9.2579200473810481e-05 -0.072224162434009573 0 2.2021207961108059e-05 -0.073801322646238607 0 -0.00023376476621520868 -0.074404050212909786 0 4.3322831616523322e-05 -0.075071791112139505 0 -3.2335208378144145e-09 -0.074998687800302985 0 7.9428616349901276e-08 -0.075000869224446112 0 4.3322831616523322e-05 -0.075071791112139505 0 -1.667308078130499e-05 -0.074993401142276192 0 7.9428616349901276e-08 -0.075000869224446112 0 3.6768556748929244e-05 -0.071316824224063921 0 0.00097475081951850409 -0.072105386053311224 0 0.0010693082117726386 -0.070743398572852098 0 2.2021207961108059e-05 -0.073801322646238607 0 7.2470417135802668e-05 -0.073855605009887984 0 0.00097475081951850409 -0.072105386053311224 0 -9.2579200473810481e-05 -0.072224162434009573 0 -7.743735496702572e-07 -0.073134379003636896 0 4.3322831616523322e-05 -0.075071791112139505 0 -3.2335208378144145e-09 -0.074998687800302985 0 0.00023860415446856116 -0.074427084491089271 0 0.00097475081951850409 -0.072105386053311224 0 -7.743735496702572e-07 -0.073134379003636896 0 0.00023860415446856116 -0.074427084491089271 0 -0.00064615381790843163 -0.071810684761710097 0 -9.2579200473810481e-05 -0.072224162434009573 0 -0.00042651871304789376 -0.072702424799273566 0 -9.2579200473810481e-05 -0.072224162434009573 0 -7.743735496702572e-07 -0.073134379003636896 0 -0.00042651871304789376 -0.072702424799273566 0 -0.00042651871304789376 -0.072702424799273566 0 -0.00028802640324444563 -0.073632827297217499 0 -0.0007045665101997144 -0.072972084444601043 0 -7.743735496702572e-07 -0.073134379003636896 0 -0.00028802640324444563 -0.073632827297217499 0 0.00023860415446856116 -0.074427084491089271 0 -7.743735496702572e-07 -0.073134379003636896 0 -0.00042651871304789376 -0.072702424799273566 0 -0.00028802640324444563 -0.073632827297217499 0 -0.00028802640324444563 -0.073632827297217499 0 0.00023860415446856116 -0.074427084491089271 0 -3.0683423809934057e-05 -0.074308373048686621 0 -3.2335208378144145e-09 -0.074998687800302985 0 0.00023860415446856116 -0.074427084491089271 0 6.5453625427820665e-07 -0.074998936895846691 0 0.00023860415446856116 -0.074427084491089271 0 -3.0683423809934057e-05 -0.074308373048686621 0 6.5453625427820665e-07 -0.074998936895846691 0 -3.0683423809934057e-05 -0.074308373048686621 0 6.5453625427820665e-07 -0.074998936895846691 0 -0.00018963470183158335 -0.074084327795501073 0 -0.00037954242544509112 -0.073469001785153726 0 -0.00018963470183158335 -0.074084327795501073 0 -0.0005983490419616004 -0.073204424977135904 0 -0.00028802640324444563 -0.073632827297217499 0 -0.00018963470183158335 -0.074084327795501073 0 -0.0005983490419616004 -0.073204424977135904 0 -0.00028802640324444563 -0.073632827297217499 0 -3.0683423809934057e-05 -0.074308373048686621 0 -0.00018963470183158335 -0.074084327795501073 0 -0.00047501573577990577 -0.072769191537669073 0 -0.0005983490419616004 -0.073204424977135904 0 -0.0010277452865474826 -0.072500571205050865 0 -0.0005983490419616004 -0.073204424977135904 0 -0.00097347921106802099 -0.072735781471137601 0 -0.0007045665101997144 -0.072972084444601043 0 -0.0005983490419616004 -0.073204424977135904 0 -0.0010277452865474826 -0.072500571205050865 0 -0.00097347921106802099 -0.072735781471137601 0 -0.0015206122971820897 -0.071534479323929409 0 -0.0012325193583829824 -0.072226985838741389 0 -0.0010277452865474826 -0.072500571205050865 0 -0.0012325193583829824 -0.072226985838741389 0 -0.0010277452865474826 -0.072500571205050865 0 -0.0012471845842055725 -0.07246579100701922 0 -0.0010277452865474826 -0.072500571205050865 0 -0.00097347921106802099 -0.072735781471137601 0 -0.0012471845842055725 -0.07246579100701922 0 -0.001688591016599401 -0.071944673609553214 0 -0.0010627669468989242 -0.072357141383381951 0 -0.0012471845842055725 -0.07246579100701922 0 -0.0010627669468989242 -0.072357141383381951 0 -0.00097347921106802099 -0.072735781471137601 0 -0.0012471845842055725 -0.07246579100701922 0 -0.0010627669468989242 -0.072357141383381951 0 -0.00097347921106802099 -0.072735781471137601 0 -0.0007045665101997144 -0.072972084444601043 0 -0.0010627669468989242 -0.072357141383381951 0 -0.00042651871304789376 -0.072702424799273566 0 -0.0007045665101997144 -0.072972084444601043 0 -0.00028802640324444563 -0.073632827297217499 0 -0.0005983490419616004 -0.073204424977135904 0 -0.0007045665101997144 -0.072972084444601043 0 -0.00024552057890474743 -0.0429463647015405 0 -0.00034846074058235096 -0.044170403218629743 0 0.00035123239652559311 -0.04387396093644455 0 -0.00024552057890474743 -0.0429463647015405 0 -0.00073842091170718159 -0.044037191577049661 0 -0.00034846074058235096 -0.044170403218629743 0 -0.00024552057890474743 -0.0429463647015405 0 0.00035123239652559311 -0.04387396093644455 0 0.000398187622630515 -0.042582625631497104 0 -0.00024552057890474743 -0.0429463647015405 0 -0.00073842091170718159 -0.044037191577049661 0 -0.00074720474955607401 -0.042955159126688069 0 -0.00073842091170718159 -0.044037191577049661 0 -0.00074720474955607401 -0.042955159126688069 0 -0.00091905783084826804 -0.04452194377461715 0 -0.00074720474955607401 -0.042955159126688069 0 -0.00023380266006552502 -0.039913002941754469 0 0.00010853405566261432 -0.041307763129358584 0 -0.00024552057890474743 -0.0429463647015405 0 -0.00074720474955607401 -0.042955159126688069 0 0.00010853405566261432 -0.041307763129358584 0 -0.00024552057890474743 -0.0429463647015405 0 0.00010853405566261432 -0.041307763129358584 0 0.000398187622630515 -0.042582625631497104 0 -0.00023380266006552502 -0.039913002941754469 0 -7.9180830466273608e-07 -0.040418470439245603 0 -5.8514011934274179e-07 -0.036022661487925385 0 -0.00023380266006552502 -0.039913002941754469 0 -7.9180830466273608e-07 -0.040418470439245603 0 -0.00050303111052668495 -0.042785716421898518 0 -0.00074720474955607401 -0.042955159126688069 0 -0.00023380266006552502 -0.039913002941754469 0 -0.00050303111052668495 -0.042785716421898518 0 -0.00074720474955607401 -0.042955159126688069 0 -0.00050303111052668495 -0.042785716421898518 0 -0.00070229635313871221 -0.045033111982095878 0 -0.00050303111052668495 -0.042785716421898518 0 -1.1988313599725006e-06 -0.044811882796551898 0 -0.00070229635313871221 -0.045033111982095878 0 -7.9180830466273608e-07 -0.040418470439245603 0 -0.00050303111052668495 -0.042785716421898518 0 -1.1988313599725006e-06 -0.044811882796551898 0 -1.1988313599725006e-06 -0.