<?xml version="1.0"?>
<VTKFile type="UnstructuredGrid" version="0.1" byte_order="LittleEndian">
<UnstructuredGrid>
<Piece NumberOfPoints="31898" NumberOfCells="11152">
<Points>
<DataArray type="Float64" NumberOfComponents="3" format="ascii">
-0.5 -0.5 0 -0.47620991077874902 -0.44978878706170539 0 -0.49999999999999473 -0.42132396840504388 0 -0.5 -0.5 0 -0.47160970827802529 -0.4793630013852106 0 -0.47620991077874902 -0.44978878706170539 0 -0.5 -0.5 0 -0.47160970827802529 -0.4793630013852106 0 -0.44860394795025399 -0.5 0 -0.47160970827802529 -0.4793630013852106 0 -0.44860394795025399 -0.5 0 -0.4490820238307246 -0.45820516232899983 0 -0.44860394795025399 -0.5 0 -0.4490820238307246 -0.45820516232899983 0 -0.42881687682924802 -0.47781464288736519 0 -0.4490820238307246 -0.45820516232899983 0 -0.45555437223955858 -0.42914059360647611 0 -0.4490820238307246 -0.45820516232899983 0 -0.45555437223955858 -0.42914059360647611 0 -0.43867285131603428 -0.4271457417558665 0 -0.4490820238307246 -0.45820516232899983 0 -0.43867285131603428 -0.4271457417558665 0 -0.4263356171060747 -0.44269880333887462 0 -0.47160970827802529 -0.4793630013852106 0 -0.4490820238307246 -0.45820516232899983 0 -0.47620991077874902 -0.44978878706170539 0 -0.4490820238307246 -0.45820516232899983 0 -0.47620991077874902 -0.44978878706170539 0 -0.45555437223955858 -0.42914059360647611 0 -0.47620991077874902 -0.44978878706170539 0 -0.48101336032419229 -0.41069999664450008 0 -0.45555437223955858 -0.42914059360647611 0 -0.47620991077874902 -0.44978878706170539 0 -0.49999999999999473 -0.42132396840504388 0 -0.48101336032419229 -0.41069999664450008 0 -0.49999999999999473 -0.42132396840504388 0 -0.48101336032419229 -0.41069999664450008 0 -0.5 -0.393886241813306 0 -0.49999999999999473 -0.42132396840504388 0 -0.48101336032419229 -0.41069999664450008 0 -0.5 -0.393886241813306 0 -0.47854472220918332 -0.38978458738689759 0 -0.48422759779560409 -0.37130120630367158 0 -0.5 -0.393886241813306 0 -0.5 -0.36644851522156802 0 -0.48422759779560409 -0.37130120630367158 0 -0.48101336032419229 -0.41069999664450008 0 -0.5 -0.393886241813306 0 -0.47854472220918332 -0.38978458738689759 0 -0.48101336032419229 -0.41069999664450008 0 -0.47854472220918332 -0.38978458738689759 0 -0.46202672064839212 -0.40007602488395211 0 -0.48101336032419229 -0.41069999664450008 0 -0.46202672064839212 -0.40007602488395211 0 -0.47854472220918332 -0.38978458738689759 0 -0.46725442735267431 -0.37660061361585562 0 -0.46202672064839212 -0.40007602488395211 0 -0.47854472220918332 -0.38978458738689759 0 -0.46725442735267431 -0.37660061361585562 0 -0.48422759779560409 -0.37130120630367158 0 -0.46725442735267431 -0.37660061361585562 0 -0.46202672064839212 -0.40007602488395211 0 -0.46725442735267431 -0.37660061361585562 0 -0.45645674801697989 -0.38644133236760531 0 -0.46202672064839212 -0.40007602488395211 0 -0.46725442735267431 -0.37660061361585562 0 -0.45645674801697989 -0.38644133236760531 0 -0.4540003998136638 -0.37455519391687309 0 -0.45645674801697989 -0.38644133236760531 0 -0.46202672064839212 -0.40007602488395211 0 -0.44257020456291563 -0.38918913383950271 0 -0.46202672064839212 -0.40007602488395211 0 -0.44257020456291563 -0.38918913383950271 0 -0.44727608925983742 -0.41095911152778891 0 -0.46202672064839212 -0.40007602488395211 0 -0.44257020456291563 -0.38918913383950271 0 -0.44257020456291563 -0.38918913383950271 0 -0.44727608925983742 -0.41095911152778891 0 -0.43479358559901082 -0.4041454901736512 0 -0.44257020456291563 -0.38918913383950271 0 -0.4540003998136638 -0.37455519391687309 0 -0.44172858264042247 -0.37082207246888088 0 -0.45645674801697989 -0.38644133236760531 0 -0.44257020456291563 -0.38918913383950271 0 -0.4540003998136638 -0.37455519391687309 0 -0.46202672064839212 -0.40007602488395211 0 -0.45555437223955858 -0.42914059360647611 0 -0.44727608925983742 -0.41095911152778891 0 -0.46202672064839212 -0.40007602488395211 0 -0.45555437223955858 -0.42914059360647611 0 -0.48101336032419229 -0.41069999664450008 0 -0.46202672064839212 -0.40007602488395211 0 -0.45555437223955858 -0.42914059360647611 0 -0.44727608925983742 -0.41095911152778891 0 -0.43867285131603428 -0.4271457417558665 0 -0.43676601469929588 -0.41441201227470881 0 -0.44727608925983742 -0.41095911152778891 0 -0.43676601469929588 -0.41441201227470881 0 -0.43479358559901082 -0.4041454901736512 0 -0.45555437223955858 -0.42914059360647611 0 -0.44727608925983742 -0.41095911152778891 0 -0.43867285131603428 -0.4271457417558665 0 -0.43867285131603428 -0.4271457417558665 0 -0.42681803064840879 -0.42717069814352421 0 -0.4263356171060747 -0.44269880333887462 0 -0.42681803064840879 -0.42717069814352421 0 -0.41531815884496182 -0.42985383783075998 0 -0.4263356171060747 -0.44269880333887462 0 -0.42681803064840879 -0.42717069814352421 0 -0.42624289495594048 -0.42089725947505818 0 -0.42083332353326591 -0.42146747131641099 0 -0.42681803064840879 -0.42717069814352421 0 -0.43096994786351572 -0.41951492446283251 0 -0.42624289495594048 -0.42089725947505818 0 -0.43867285131603428 -0.4271457417558665 0 -0.42681803064840879 -0.42717069814352421 0 -0.43096994786351572 -0.41951492446283251 0 -0.43867285131603428 -0.4271457417558665 0 -0.43676601469929588 -0.41441201227470881 0 -0.43096994786351572 -0.41951492446283251 0 -0.43676601469929588 -0.41441201227470881 0 -0.43096994786351572 -0.41951492446283251 0 -0.42907264086257813 -0.41311715872526122 0 -0.43676601469929588 -0.41441201227470881 0 -0.42907264086257813 -0.41311715872526122 0 -0.43479358559901082 -0.4041454901736512 0 -0.42907264086257813 -0.41311715872526122 0 -0.43479358559901082 -0.4041454901736512 0 -0.42460885511582858 -0.40417321677700252 0 -0.42907264086257813 -0.41311715872526122 0 -0.41997834854398469 -0.41180534796019508 0 -0.42907264086257813 -0.41311715872526122 0 -0.42635027777857132 -0.41543594397746519 0 -0.41997834854398469 -0.41180534796019508 0 -0.42907264086257813 -0.41311715872526122 0 -0.41997834854398469 -0.41180534796019508 0 -0.42460885511582858 -0.40417321677700252 0 -0.42635027777857132 -0.41543594397746519 0 -0.41997834854398469 -0.41180534796019508 0 -0.42635027777857132 -0.41543594397746519 0 -0.42083332353326591 -0.42146747131641099 0 -0.41997834854398469 -0.41180534796019508 0 -0.43096994786351572 -0.41951492446283251 0 -0.42624289495594048 -0.42089725947505818 0 -0.42635027777857132 -0.41543594397746519 0 -0.43096994786351572 -0.41951492446283251 0 -0.42907264086257813 -0.41311715872526122 0 -0.42635027777857132 -0.41543594397746519 0 -0.42624289495594048 -0.42089725947505818 0 -0.42635027777857132 -0.41543594397746519 0 -0.42083332353326591 -0.42146747131641099 0 -0.42083332353326591 -0.42146747131641099 0 -0.41997834854398469 -0.41180534796019508 0 -0.40992282953163789 -0.42011435591993562 0 -0.41997834854398469 -0.41180534796019508 0 -0.39756877647335259 -0.40857286797681719 0 -0.41997834854398469 -0.41180534796019508 0 -0.40992282953163789 -0.42011435591993562 0 -0.39756877647335259 -0.40857286797681719 0 -0.40992282953163789 -0.42011435591993562 0 -0.41531815884496182 -0.42985383783075998 0 -0.39591554026262499 -0.42887225451549271 0 -0.41531815884496182 -0.42985383783075998 0 -0.39591554026262499 -0.42887225451549271 0 -0.41160927495564159 -0.44339431233754628 0 -0.42083332353326591 -0.42146747131641099 0 -0.40992282953163789 -0.42011435591993562 0 -0.41531815884496182 -0.42985383783075998 0 -0.42681803064840879 -0.42717069814352421 0 -0.42083332353326591 -0.42146747131641099 0 -0.41531815884496182 -0.42985383783075998 0 -0.44257020456291563 -0.38918913383950271 0 -0.42311368847744002 -0.37830224279505142 0 -0.42594061475171041 -0.39368797999533162 0 -0.44257020456291563 -0.38918913383950271 0 -0.42311368847744002 -0.37830224279505142 0 -0.44172858264042247 -0.37082207246888088 0 -0.44257020456291563 -0.38918913383950271 0 -0.42311368847744002 -0.37830224279505142 0 -0.42311368847744002 -0.37830224279505142 0 -0.42594061475171041 -0.39368797999533162 0 -0.416587075656149 -0.38785930376960043 0 -0.44257020456291563 -0.38918913383950271 0 -0.42594061475171041 -0.39368797999533162 0 -0.43479358559901082 -0.4041454901736512 0 -0.42594061475171041 -0.39368797999533162 0 -0.43479358559901082 -0.4041454901736512 0 -0.42460885511582858 -0.40417321677700252 0 -0.41997834854398469 -0.41180534796019508 0 -0.41325908582185972 -0.39811010703057192 0 -0.39770572831670092 -0.39911486077581648 0 -0.41997834854398469 -0.41180534796019508 0 -0.39770572831670092 -0.39911486077581648 0 -0.42594061475171041 -0.39368797999533162 0 -0.42460885511582858 -0.40417321677700252 0 -0.41325908582185972 -0.39811010703057192 0 -0.41997834854398469 -0.41180534796019508 0 -0.42460885511582858 -0.40417321677700252 0 -0.41325908582185972 -0.39811010703057192 0 -0.42594061475171041 -0.39368797999533162 0 -0.41325908582185972 -0.39811010703057192 0 -0.416587075656149 -0.38785930376960043 0 -0.41325908582185972 -0.39811010703057192 0 -0.416587075656149 -0.38785930376960043 0 -0.40403491357358612 -0.38133688525744702 0 -0.42311368847744002 -0.37830224279505142 0 -0.40403491357358612 -0.38133688525744702 0 -0.40365717239196519 -0.36741535175059892 0 -0.42311368847744002 -0.37830224279505142 0 -0.416587075656149 -0.38785930376960043 0 -0.40403491357358612 -0.38133688525744702 0 -0.40403491357358612 -0.38133688525744702 0 -0.39190790742475001 -0.38540387676521748 0 -0.39770572831670092 -0.39911486077581648 0 -0.40403491357358612 -0.38133688525744702 0 -0.39190790742475001 -0.38540387676521748 0 -0.3904578797192948 -0.37473938743617019 0 -0.41325908582185972 -0.39811010703057192 0 -0.40403491357358612 -0.38133688525744702 0 -0.39770572831670092 -0.39911486077581648 0 -0.39770572831670092 -0.39911486077581648 0 -0.37543310808941849 -0.38642437359143528 0 -0.39770572831670092 -0.39911486077581648 0 -0.37515920440272033 -0.40534038799344108 0 -0.37543310808941849 -0.38642437359143528 0 -0.39770572831670092 -0.39911486077581648 0 -0.37515920440272033 -0.40534038799344108 0 -0.39756877647335259 -0.40857286797681719
[...]
<PointData Scalars="" Vectors="displacement," Tensors="">
<DataArray type="Float64" Name="displacement" NumberOfComponents="3" format="ascii">
0.024997943095981592 1.9122997429452684e-07 0 0.024367518529267496 0.00012694257255506562 0 0.024998326068862549 5.2954600779536277e-07 0 0.024997943095981592 1.9122997429452684e-07 0 0.023905872587317262 8.4134010783470421e-05 0 0.024367518529267496 0.00012694257255506562 0 0.024997943095981592 1.9122997429452684e-07 0 0.023905872587317262 8.4134010783470421e-05 0 0.022431578974787796 1.8542134301801494e-07 0 0.023905872587317262 8.4134010783470421e-05 0 0.022431578974787796 1.8542134301801494e-07 0 0.023460285999804029 -5.8775610996149229e-05 0 0.022431578974787796 1.8542134301801494e-07 0 0.023460285999804029 -5.8775610996149229e-05 0 0.022291998723373178 4.814881394136012e-05 0 0.023696022291693694 -0.00015648508675135977 0 0.023819477964574908 -0.00015701307956367722 0 0.023460285999804029 -5.8775610996149229e-05 0 0.02302773789860527 -0.00024913330204692568 0 0.022988299865099083 -8.0120260614993818e-05 0 0.023460285999804029 -5.8775610996149229e-05 0 0.022988299865099083 -8.0120260614993818e-05 0 0.023027160566711908 -7.7253360697280187e-06 0 0.023905872587317262 8.4134010783470421e-05 0 0.023460285999804029 -5.8775610996149229e-05 0 0.024367518529267496 0.00012694257255506562 0 0.023460285999804029 -5.8775610996149229e-05 0 0.024367518529267496 0.00012694257255506562 0 0.024602420518724532 -0.0001936336498668217 0 0.024367518529267496 0.00012694257255506562 0 0.024917663568853988 2.0413828641326965e-05 0 0.024602420518724532 -0.0001936336498668217 0 0.024367518529267496 0.00012694257255506562 0 0.024998326068862549 5.2954600779536277e-07 0 0.024917663568853988 2.0413828641326965e-05 0 0.02499999914923718 -7.1341183809375176e-11 0 0.024998943511789058 3.0080090237353675e-07 0 0.024999998707978244 3.8587035003677634e-10 0 0.02499923047879312 -3.0282304652267152e-07 0 0.02461935741343893 -9.6646328399387825e-05 0 0.024999998707978244 3.8587035003677634e-10 0 0.024998752682706106 5.484531443545737e-07 0 0.024999471140798507 8.9516027725514679e-07 0 0.024999998707978244 3.8587035003677634e-10 0 0.024999997869956058 1.3544139625642605e-09 0 0.024999471140798507 8.9516027725514679e-07 0 0.024998943511789058 3.0080090237353675e-07 0 0.024999998707978244 3.8587035003677634e-10 0 0.024998752682706106 5.484531443545737e-07 0 0.024998943511789058 3.0080090237353675e-07 0 0.024998752682706106 5.484531443545737e-07 0 0.024997392009619011 4.3082943973394794e-07 0 0.02461935741343893 -9.6646328399387825e-05 0 0.024032887966101573 -0.00011478304491330734 0 0.024998752682706106 5.484531443545737e-07 0 0.024998455374282361 5.9164163119799015e-07 0 0.024997392009619011 4.3082943973394794e-07 0 0.024998752682706106 5.484531443545737e-07 0 0.024998455374282361 5.9164163119799015e-07 0 0.024999471140798507 8.9516027725514679e-07 0 0.024410070061742166 -4.7848211878240362e-05 0 0.024032887966101573 -0.00011478304491330734 0 0.023918372279469729 -0.00010444068773303752 0 0.023787505279950962 -0.00025884876703893812 0 0.023601297620553959 -0.00018322855397819488 0 0.023918372279469729 -0.00010444068773303752 0 0.023787505279950962 -0.00025884876703893812 0 0.023954157995030107 -0.00029617249470457064 0 0.023787505279950962 -0.00025884876703893812 0 0.023601297620553959 -0.00018322855397819488 0 0.023753119652023466 -0.00044932056962756058 0 0.02280277732501822 -0.00029209011672094904 0 0.022716603709962837 -0.00015013810588003412 0 0.022886164756620316 -0.00017615826082079868 0 0.024032887966101573 -0.00011478304491330734 0 0.023415183193786139 -0.0002705792283293106 0 0.022716603709962837 -0.00015013810588003412 0 0.022886164756620316 -0.00017615826082079868 0 0.02283802705866083 -8.8979361044856626e-05 0 0.023753119652023466 -0.00044932056962756058 0 0.023954157995030107 -0.00029617249470457064 0 0.024004670520656086 -0.0004614956180418663 0 0.023787505279950962 -0.00025884876703893812 0 0.023753119652023466 -0.00044932056962756058 0 0.023954157995030107 -0.00029617249470457064 0 0.02280277732501822 -0.00029209011672094904 0 0.02302773789860527 -0.00024913330204692568 0 0.022886164756620316 -0.00017615826082079868 0 0.024032887966101573 -0.00011478304491330734 0 0.023819477964574908 -0.00015701307956367722 0 0.024917663568853988 2.0413828641326965e-05 0 0.025005216278371163 -0.00017264248704233315 0 0.024602420518724532 -0.0001936336498668217 0 0.022886164756620316 -0.00017615826082079868 0 0.022988299865099083 -8.0120260614993818e-05 0 0.022920773912501611 -9.659894200259065e-05 0 0.022886164756620316 -0.00017615826082079868 0 0.022920773912501611 -9.659894200259065e-05 0 0.02283802705866083 -8.8979361044856626e-05 0 0.02302773789860527 -0.00024913330204692568 0 0.022886164756620316 -0.00017615826082079868 0 0.022988299865099083 -8.0120260614993818e-05 0 0.022988299865099083 -8.0120260614993818e-05 0 0.022987793223646039 -4.824567746232167e-05 0 0.023027160566711908 -7.7253360697280187e-06 0 0.022987793223646039 -4.824567746232167e-05 0 0.022992020338846689 -7.9794956005147945e-05 0 0.023027160566711908 -7.7253360697280187e-06 0 0.022987793223646039 -4.824567746232167e-05 0 0.022969496098360753 -5.1711638094488543e-05 0 0.022976390592642521 -6.0324515004447068e-05 0 0.022987793223646039 -4.824567746232167e-05 0 0.022959657746964884 -6.1905356428527261e-05 0 0.022969496098360753 -5.1711638094488543e-05 0 0.022988299865099083 -8.0120260614993818e-05 0 0.022987793223646039 -4.824567746232167e-05 0 0.022959657746964884 -6.1905356428527261e-05 0 0.022988299865099083 -8.0120260614993818e-05 0 0.022920773912501611 -9.659894200259065e-05 0 0.022959657746964884 -6.1905356428527261e-05 0 0.022920773912501611 -9.659894200259065e-05 0 0.022959657746964884 -6.1905356428527261e-05 0 0.022925017699778245 -5.2675928585373823e-05 0 0.022920773912501611 -9.659894200259065e-05 0 0.022925017699778245 -5.2675928585373823e-05 0 0.02283802705866083 -8.8979361044856626e-05 0 0.022925017699778245 -5.2675928585373823e-05 0 0.02283802705866083 -8.8979361044856626e-05 0 0.022837426693271663 -6.9796727442977876e-06 0 0.020639754354318866 -0.00058331463843693215 0 0.020564921583173999 -0.00062398318494254527 0 0.022925017699778245 -5.2675928585373823e-05 0 0.022952686287057066 -4.2964704269230998e-05 0 0.022929965300355928 -3.8727616003130643e-06 0 0.022925017699778245 -5.2675928585373823e-05 0 0.022906042978701777 3.3379501336254832e-05 0 0.022837426693271663 -6.9796727442977876e-06 0 0.02063624392400748 -0.00064784855863082001 0 0.020564921583173999 -0.00062398318494254527 0 0.022952686287057066 -4.2964704269230998e-05 0 0.022976390592642521 -6.0324515004447068e-05 0 0.02298224976675687 -6.3679614360122967e-05 0 0.022959657746964884 -6.1905356428527261e-05 0 0.022969496098360753 -5.1711638094488543e-05 0 0.022952686287057066 -4.2964704269230998e-05 0 0.022959657746964884 -6.1905356428527261e-05 0 0.022925017699778245 -5.2675928585373823e-05 0 0.022952686287057066 -4.2964704269230998e-05 0 0.022969496098360753 -5.1711638094488543e-05 0 0.022952686287057066 -4.2964704269230998e-05 0 0.022976390592642521 -6.0324515004447068e-05 0 0.022976390592642521 -6.0324515004447068e-05 0 0.02298224976675687 -6.3679614360122967e-05 0 0.02298177237796873 -8.3716494914056524e-05 0 0.020564921583173999 -0.00062398318494254527 0 0.020013810898597127 -0.00049037668157291263 0 0.02298224976675687 -6.3679614360122967e-05 0 0.02298177237796873 -8.3716494914056524e-05 0 0.022990948279989435 -0.00010634409817115867 0 0.02298177237796873 -8.3716494914056524e-05 0 0.022992020338846689 -7.9794956005147945e-05 0 0.022972371424973128 -0.00011286386840484492 0 0.022992020338846689 -7.9794956005147945e-05 0 0.022972371424973128 -0.00011286386840484492 0 0.022976476968812401 -0.00012868713567194503 0 0.022976390592642521 -6.0324515004447068e-05 0 0.02298177237796873 -8.3716494914056524e-05 0 0.022992020338846689 -7.9794956005147945e-05 0 0.022987793223646039 -4.824567746232167e-05 0 0.022976390592642521 -6.0324515004447068e-05 0 0.022992020338846689 -7.9794956005147945e-05 0 0.022716603709962837 -0.00015013810588003412 0 0.022608929043207465 5.6161825643902683e-06 0 0.022745953679703772 -1.7306299821665301e-05 0 0.023753119652023466 -0.00044932056962756058 0 0.023903297209767499 -0.00070535455839297839 0 0.024004670520656086 -0.0004614956180418663 0 0.023415183193786139 -0.0002705792283293106 0 0.022935323867417777 -0.00052244152330091129 0 0.022608929043207465 5.6161825643902683e-06 0 0.022745953679703772 -1.7306299821665301e-05 0 0.022689902535987291 6.1737798649543507e-05 0 0.022716603709962837 -0.00015013810588003412 0 0.022745953679703772 -1.7306299821665301e-05 0 0.02283802705866083 -8.8979361044856626e-05 0 0.022745953679703772 -1.7306299821665301e-05 0 0.02283802705866083 -8.8979361044856626e-05 0 0.022837426693271663 -6.9796727442977876e-06 0 0.022906042978701777 3.3379501336254832e-05 0 0.022781056732363619 9.1343674135291111e-05 0 0.022787483936626024 0.00023005758174616216 0 0.020564921583173999 -0.00062398318494254527 0 0.020098763244355274 -0.00069337803974087793 0 0.022745953679703772 -1.7306299821665301e-05 0 0.022837426693271663 -6.9796727442977876e-06 0 0.022781056732363619 9.1343674135291111e-05 0 0.022906042978701777 3.3379501336254832e-05 0 0.022837426693271663 -6.9796727442977876e-06 0 0.022781056732363619 9.1343674135291111e-05 0 0.022745953679703772 -1.7306299821665301e-05 0 0.022781056732363619 9.1343674135291111e-05 0 0.022689902535987291 6.1737798649543507e-05 0 0.022781056732363619 9.1343674135291111e-05 0 0.022689902535987291 6.1737798649543507e-05 0 0.022624106963353752 0.00016834607799173356 0 0.022608929043207465 5.6161825643902683e-06 0 0.022624106963353752 0.00016834607799173356 0 0.022507918795034016 0.00016994484752114533 0 0.022608929043207465 5.6161825643902683e-06 0 0.022689902535987291 6.1737798649543507e-05 0 0.022624106963353752 0.00016834607799173356 0 0.022624106963353752 0.00016834607799173356 0 0.02265579816563916 0.00028726409309635145 0 0.022787483936626024 0.00023005758174616216 0 0.022624106963353752 0.00016834607799173356 0 0.02265579816563916 0.00028726409309635145 0 0.022548467196738805 0.00030199022259709768 0 0.022781056732363619 9.1343674135291111e-05 0 0.022624106963353752 0.00016834607799173356 0 0.022787483936626024 0.00023005758174616216 0 0.020098763244355274 -0.00069337803974087793 0 0.01885369748322183 -0.00079950483333569194 0 0.019615113814099014 -0.00061637226265540091 0 0.019680461628462653 -0.00037239114350612703 0 0.019475542251236738 -0.00037564293166137173 0 0.019615113814099014 -0.00061637226265540091 0 0.019680461628462653 -0.00037239114350612703 0 0.019717729731958414 -0.00061477064649327281 0 0.018857368226296106 -0.00030533868356411313 0 0.01885369748322183 -0.00079950483333569194 0 0.022661369561493682 0.00045059713662938615 0 0.022548467196738805 0.00030199022259709768 0 0.022487351696299254 0.00045129264982445049 0 0.02265579816563916 0.00028726409309635145 0 0.022661369561493682 0.00045059713662938615 0 0.022548467196738805 0.00030199022259709768 0 0.01885369748322183 -0.00079950483333569194 0 0.019969801685992754 -0.00073671124450153461 0 0.02265579816563916 0.00028726409309635145 0 0.022787483936626024 0.00023005758174616216 0 0.022661369561493682 0.00045059713662938615 0 0.019755976400204184 -0.00085673758187891972 0 0.019615113814099014 -0.00061637226265540091 0 0.019717729731958414 -0.00061477064649327281 0 0.02298177237796873 -8.3716494914056524e-05 0 0.022972371424973128 -0.00011286386840484492 0 0.022990948279989435 -0.00010634409817115867 0 0.022984143896235841 -0.00012970487590363461 0 0.022972371424973128 -0.00011286386840484492 0 0.022990948279989435 -0.00010634409817115867 0 0.018857368226296106 -0.00030533868356411313 0 0.020013810898597127 -0.00049037668157291263 0 0.022984143896235841 -0.00012970487590363461 0 0.022972371424973128 -0.00011286386840484492 0 0.02296319349740886 -0.00013131517073211585 0 0.022972371424973128 -0.00011286386840484492 0 0.022963096769261102 -0.00012163629711096761 0 0.02296319349740886 -0.00013131517073211585 0 0.022963096769261102 -0.00012163629711096761 0 0.022941386955594018 -0.00013547735959557153 0 0.02296319349740886 -0.00013131517073211585 0 0.022972371424973128 -0.00011286386840484492 0 0.022963096769261102 -0.00012163629711096761 0 0.022976476968812401 -0.00012868713567194503 0 0.022963096769261102 -0.00012163629711096761 0 0.022959634005509166 -0.00012162835490835159 0 0.022976476968812401 -0.00012868713567194503 0 0.022631654666487998 -0.00044312560966621871 0 0.021216237758296293 -0.00052469977896714068 0 0.022190457300632151 -0.00015237687358882164 0 0.016976888349187008 -0.0011836515263516003 0 0.017128023282932597 -0.00060907873432300007 0 0.017803117598372355 -0.00074927772406461557 0 0.020217609850629214 0.00040149890521415214 0 0.019573159838993968 3.1072946082633415e-05 0 0.020217609850629214 0.00040149890521415214 0 0.020224276849017953 0.00039904986556441236 0 0.020217609850629214 0.00040149890521415214 0 0.019671784221697308 -0.00012580359957628255 0 0.022963096769261102 -0.00012163629711096761 0 0.022959634005509166 -0.00012162835490835159 0 0.022949633424285163 -0.00012519850214569487 0 0.022963096769261102 -0.00012163629711096761 0 0.022949633424285163 -0.00012519850214569487 0 0.022941386955594018 -0.00013547735959557153 0 0.019671784221697308 -0.00012580359957628255 0 0.019078236690288759 -0.00051773507372728173 0 0.017128023282932597 -0.00060907873432300007 0 0.017518924993958296 -0.00039773791377530055 0 0.017280938171974868 -1.9742118347864882e-05 0 0.017518924993958296 -0.00039773791377530055 0 0.017803117598372355 -0.00074927772406461557 0 0.017742825059710001 -5.4710669872369869e-06 0 0.017803117598372355 -0.00074927772406461557 0 0.018236486424685488 9.0541396306816586e-05 0 0.017742825059710001 -5.4710669872369869e-06 0 0.017518924993958296 -0.00039773791377530055 0 0.017742825059710001 -5.4710669872369869e-06 0 0.017280938171974868 -1.9742118347864882e-05 0 0.017128023282932597 -0.00060907873432300007 0 0.017518924993958296 -0.00039773791377530055 0 0.017803117598372355 -0.00074927772406461557 0 0.01904825900945372 -1.3680596389466144e-07 0 0.019573159838993968 3.1072946082633415e-05 0 0.019045247719625482 -1.280233007685911e-06 0 0.017803117598372355 -0.00074927772406461557 0 0.018236486424685488 9.0541396306816586e-05 0 0.019049812099077485 -2.0206316295907094e-06 0 0.021216237758296293 -0.00052469977896714068 0 0.020499098564003514 3.6133416968931314e-07 0 0.021216237758296293 -0.00052469977896714068 0 0.022190457300632151 -0.00015237687358882164 0 0.020499098564003514 3.6133416968931314e-07 0 0.022190457300632151 -0.00015237687358882164 0 0.020499098564003514 3.6133416968931314e-07 0 0.022291998723373178 4.814881394136012e-05 0 0.022431578974787796 1.8542134301801494e-07 0 0.020499098564003514 3.6133416968931314e-07 0 0.022291998723373178 4.814881394136012e-05 0 0.022190457300632151 -0.00015237687358882164 0 0.022291998723373178 4.814881394136012e-05 0 0.022810857382572818 -1.8023996050454654e-05 0 0.023460285999804029 -5.8775610996149229e-05 0 0.022291998723373178 4.814881394136012e-05 0 0.022810857382572818 -1.8023996050454654e-05 0 0.023460285999804029 -5.8775610996149229e-05 0 0.022810857382572818 -1.8023996050454654e-05 0 0.023027160566711908 -7.7253360697280187e-06 0 0.022810857382572818 -1.8023996050454654e-05 0 0.023027160566711908 -7.7253360697280187e-06 0 0.022815451089684999 -0.00010130114994648491 0 0.023027160566711908 -7.7253360697280187e-06 0 0.022976476968812401 -0.00012868713567194503 0 0.022815451089684999 -0.00010130114994648491 0 0.022992020338846689 -7.9794956005147945e-05 0 0.023027160566711908 -7.7253360697280187e-06 0 0.022976476968812401 -0.00012868713567194503 0 0.022660717931276195 -0.00042186901194634025 0 0.022976476968812401 -0.00012868713567194503 0 0.022674751144303326 -0.00034874237451410964 0 0.022976476968812401 -0.00012868713567194503 0 0.022674751144303326 -0.00034874237451410964 0 0.022815451089684999 -0.00010130114994648491 0 0.020217609850629214 0.00040149890521415214 0 0.020884754400832754 0.0005657632031345677 0 0.022190457300632151 -0.00015237687358882164 0 0.022674751144303326 -0.00034874237451410964 0 0.022815451089684999 -0.00010130114994648491 0 0.022631654666487998 -0.00044312560966621871 0 0.022190457300632151 -0.00015237687358882164 0 0.022674751144303326 -0.00034874237451410964 0 0.022190457300632151 -0.00015237687358882164 0 0.022810857382572818 -1.8023996050454654e-05 0 0.022815451089684999 -0.00010130114994648491 0 0.023061413138541459 -0.00026604926864191153 0 0.021990925252907769 -0.00093848107509736096 0 0.024839456004907175 0.00024174509350820684 0 0.024873823053264781 0.001049762114832187 0 0.024442267112802195 0.00039662235155391745 0 0.02495345546380914 -7.4183928746789589e-05 0 0.024968530016755065 -5.6943907347578562e-05 0 0.024972125687418183 -9.6457538677378313e-05 0 0.02495345546380914 -7.4183928746789589e-05 0 0.024949146717367542 -0.0001073712983124155 0 0.024972125687418183 -9.6457538677378313e-05 0 0.02495345546380914 -7.4183928746789589e-05 0 0.024931850556114458 -0.00010523883751688608 0 0.024949146717367542 -0.0001073712983124155 0 0.02495345546380914 -7.4183928746789589e-05 0 0.024956439700271567 -4.0972735661253744e-05 0 0.02496028209937701 -3.8129147827899966e-05 0 0.02495345546380914 -7.4183928746789589e-05 0 0.024956439700271567 -4.0972735661253744e-05 0 0.024968530016755065 -5.6943907347578562e-05 0 0.023061413138541459 -0.00026604926864191153 0 0.023383496672423891 -0.00019285005994668856 0 0.024956439700271567 -4.0972735661253744e-05 0 0.024968530016755065 -5.6943907347578562e-05 0 0.024922950156154158 -4.0227191624143636e-05 0 0.024839456004907175 0.00024174509350820684 0 0.024922950156154158 -4.0227191624143636e-05 0 0.02449121554402791 -3.4793646458089503e-05 0 0.024922950156154158 -4.0227191624143636e-05 0 0.024999927947242769 -8.1220819233985521e-08 0 0.02497047666537535 -2.5448993568467244e-05 0 0.024922950156154158 -4.0227191624143636e-05 0 0.024999927947242769 -8.1220819233985521e-08 0 0.024803567527270073 -4.8861795980674472e-05 0 0.024999927947242769 -8.1220819233985521e-08 0 0.02497047666537535 -2.5448993568467244e-05 0 0.024999950830280084 2.7479806652432046e-09 0 0.024956439700271567 -4.0972735661253744e-05 0 0.024922950156154158 -4.0227191624143636e-05 0 0.02497047666537535 -2.5448993568467244e-05 0 0.024956439700271567 -4.0972735661253744e-05 0 0.02497047666537535 -2.5448993568467244e-05 0 0.02496028209937701 -3.8129147827899966e-05 0 0.02496028209937701 -3.8129147827899966e-05 0 0.02497427939079053 -7.3752145215376954e-06 0 0.02495065066812931 -2.8734920146101674e-05 0 0.02497047666537535 -2.5448993568467244e-05 0 0.02496028209937701 -3.8129147827899966e-05 0 0.02497427939079053 -7.3752145215376954e-06 0 0.024999950830280084 2.7479806652432046e-09 0 0.02497427939079053 -7.3752145215376954e-06 0 0.024999947931975321 -6.8827625635512532e-09 0 0.02497047666537535 -2.5448993568467244e-05 0 0.024999950830280084 2.7479806652432046e-09 0 0.02497427939079053 -7.3752145215376954e-06 0 0.02497427939079053 -7.3752145215376954e-06 0 0.024999947931975321 -6.8827625635512532e-09 0 0.024962456731911883 6.674943629882671e-06 0 0.024962456731911883 6.674943629882671e-06 0 0.02495065066812931 -2.8734920146101674e-05 0 0.024890219276402632 -2.4094370476822441e-05 0 0.02497427939079053 -7.3752145215376954e-06 0 0.024962456731911883 6.674943629882671e-06 0 0.02495065066812931 -2.8734920146101674e-05 0 0.02495065066812931 -2.8734920146101674e-05 0 0.024907987086383282 -6.6240486570807791e-05 0 0.024890219276402632 -2.4094370476822441e-05 0 0.024907987086383282 -6.6240486570807791e-05 0 0.02490446887042206 -0.00010156691087911487 0 0.024870363973990353 -9.8997915069506565e-05 0 0.024907987086383282 -6.6240486570807791e-05 0 0.024940128594287382 -6.8606818503396516e-05 0 0.02490446887042206 -0.00010156691087911487 0