<?xml version="1.0"?>
<VTKFile type="UnstructuredGrid" version="0.1" byte_order="LittleEndian">
<UnstructuredGrid>
<Piece NumberOfPoints="30165" NumberOfCells="10568">
<Points>
<DataArray type="Float64" NumberOfComponents="3" format="ascii">
-0.5 -0.5 0 -0.48557885346171648 -0.46885053676397009 0 -0.5 -0.44415255583246172 0 -0.5 -0.5 0 -0.47728374131135282 -0.47848601514655281 0 -0.45035377200572169 -0.5 0 -0.5 -0.5 0 -0.48557885346171648 -0.46885053676397009 0 -0.47728374131135282 -0.47848601514655281 0 -0.47728374131135282 -0.47848601514655281 0 -0.46077548898164661 -0.46541167643802228 0 -0.48557885346171648 -0.46885053676397009 0 -0.47728374131135282 -0.47848601514655281 0 -0.46492304505682819 -0.46059393724673148 0 -0.46313952970183631 -0.47751028294107861 0 -0.45265480897321242 -0.48120311832729562 0 -0.45035377200572169 -0.5 0 -0.47728374131135282 -0.47848601514655281 0 -0.46313952970183631 -0.47751028294107861 0 -0.45035377200572169 -0.5 0 -0.47728374131135282 -0.47848601514655281 0 -0.46313952970183631 -0.47751028294107861 0 -0.46077548898164661 -0.46541167643802228 0 -0.46313952970183631 -0.47751028294107861 0 -0.45409619721824351 -0.47202162727938068 0 -0.46077548898164661 -0.46541167643802228 0 -0.46313952970183631 -0.47751028294107861 0 -0.45409619721824351 -0.47202162727938068 0 -0.45265480897321242 -0.48120311832729562 0 -0.45409619721824351 -0.47202162727938068 0 -0.44067496173551068 -0.47637815741049588 0 -0.4467296384179279 -0.46618740067876702 0 -0.45409619721824351 -0.47202162727938068 0 -0.45265480897321242 -0.48120311832729562 0 -0.44067496173551068 -0.47637815741049588 0 -0.44067496173551068 -0.47637815741049588 0 -0.45035377200572169 -0.5 0 -0.42462352548853921 -0.48367618894840092 0 -0.45265480897321242 -0.48120311832729562 0 -0.44067496173551068 -0.47637815741049588 0 -0.45035377200572169 -0.5 0 -0.44426723665194012 -0.45233733772949231 0 -0.45998403061190962 -0.44090767400005842 0 -0.44870770712729352 -0.42475707638420102 0 -0.44426723665194012 -0.45233733772949231 0 -0.44870770712729352 -0.42475707638420102 0 -0.43161027616972908 -0.4423131761731765 0 -0.44426723665194012 -0.45233733772949231 0 -0.43161027616972908 -0.4423131761731765 0 -0.44426723665194012 -0.45233733772949231 0 -0.46077548898164661 -0.46541167643802228 0 -0.44426723665194012 -0.45233733772949231 0 -0.4467296384179279 -0.46618740067876702 0 -0.46077548898164661 -0.46541167643802228 0 -0.44426723665194012 -0.45233733772949231 0 -0.4467296384179279 -0.46618740067876702 0 -0.43542182626249099 -0.46109138449920611 0 -0.44067496173551068 -0.47637815741049588 0 -0.4467296384179279 -0.46618740067876702 0 -0.43542182626249099 -0.46109138449920611 0 -0.44426723665194012 -0.45233733772949231 0 -0.46492304505682819 -0.46059393724673148 0 -0.44426723665194012 -0.45233733772949231 0 -0.46077548898164661 -0.46541167643802228 0 -0.46492304505682819 -0.46059393724673148 0 -0.44426723665194012 -0.45233733772949231 0 -0.46492304505682819 -0.46059393724673148 0 -0.45937837573033963 -0.45050397192418318 0 -0.47728374131135282 -0.47848601514655281 0 -0.46077548898164661 -0.46541167643802228 0 -0.46492304505682819 -0.46059393724673148 0 -0.45409619721824351 -0.47202162727938068 0 -0.4467296384179279 -0.46618740067876702 0 -0.46077548898164661 -0.46541167643802228 0 -0.46833919060068091 -0.4481769387204505 0 -0.45937837573033963 -0.45050397192418318 0 -0.45998403061190962 -0.44090767400005842 0 -0.46833919060068091 -0.4481769387204505 0 -0.45998403061190962 -0.44090767400005842 0 -0.47279006340641172 -0.4320765313067908 0 -0.44426723665194012 -0.45233733772949231 0 -0.45937837573033963 -0.45050397192418318 0 -0.45998403061190962 -0.44090767400005842 0 -0.46492304505682819 -0.46059393724673148 0 -0.46833919060068091 -0.4481769387204505 0 -0.45937837573033963 -0.45050397192418318 0 -0.46492304505682819 -0.46059393724673148 0 -0.46833919060068091 -0.4481769387204505 0 -0.48123396957124348 -0.44975431698105828 0 -0.46833919060068091 -0.4481769387204505 0 -0.48123396957124348 -0.44975431698105828 0 -0.47279006340641172 -0.4320765313067908 0 -0.48557885346171648 -0.46885053676397009 0 -0.46492304505682819 -0.46059393724673148 0 -0.48557885346171648 -0.46885053676397009 0 -0.46492304505682819 -0.46059393724673148 0 -0.48123396957124348 -0.44975431698105828 0 -0.48557885346171648 -0.46885053676397009 0 -0.48123396957124348 -0.44975431698105828 0 -0.5 -0.44415255583246172 0 -0.48123396957124348 -0.44975431698105828 0 -0.5 -0.44415255583246172 0 -0.47279006340641172 -0.4320765313067908 0 -0.5 -0.44415255583246172 0 -0.48429955410673942 -0.4090327435116029 0 -0.47279006340641172 -0.4320765313067908 0 -0.5 -0.44415255583246172 0 -0.48429955410673942 -0.4090327435116029 0 -0.4999999999999945 -0.37208877701728182 0 -0.48429955410673942 -0.4090327435116029 0 -0.47279006340641172 -0.4320765313067908 0 -0.46580513808485952 -0.40720097659522703 0 -0.48429955410673942 -0.4090327435116029 0 -0.49142143889205891 -0.38089747320271861 0 -0.4999999999999945 -0.37208877701728182 0 -0.49142143889205891 -0.38089747320271861 0 -0.4999999999999945 -0.37208877701728182 0 -0.49142143889205891 -0.38089747320271861 0 -0.48290256904242562 -0.38964487680625298 0 -0.48429955410673942 -0.4090327435116029 0 -0.49142143889205891 -0.38089747320271861 0 -0.48290256904242562 -0.38964487680625298 0 -0.47008935403284668 -0.38296111413551592 0 -0.48290256904242562 -0.38964487680625298 0 -0.46580513808485952 -0.40720097659522703 0 -0.48429955410673942 -0.4090327435116029 0 -0.48290256904242562 -0.38964487680625298 0 -0.46580513808485952 -0.40720097659522703 0 -0.48290256904242562 -0.38964487680625298 0 -0.46580513808485952 -0.40720097659522703 0 -0.49142143889205891 -0.38089747320271861 0 -0.47008935403284668 -0.38296111413551592 0 -0.47726408907961781 -0.36833266302032891 0 -0.49142143889205891 -0.38089747320271861 0 -0.47008935403284668 -0.38296111413551592 0 -0.48290256904242562 -0.38964487680625298 0 -0.49142143889205891 -0.38089747320271861 0 -0.47008935403284668 -0.38296111413551592 0 -0.47008935403284668 -0.38296111413551592 0 -0.44893036415778431 -0.38519332779096588 0 -0.46079299710181632 -0.36726061535557009 0 -0.44893036415778431 -0.38519332779096588 0 -0.46079299710181632 -0.36726061535557009 0 -0.47008935403284668 -0.38296111413551592 0 -0.44893036415778431 -0.38519332779096588 0 -0.47008935403284668 -0.38296111413551592 0 -0.45424157777108431 -0.39771941950624429 0 -0.44893036415778431 -0.38519332779096588 0 -0.45424157777108431 -0.39771941950624429 0 -0.46580513808485952 -0.40720097659522703 0 -0.44515916753989071 -0.41138492090347151 0 -0.47008935403284668 -0.38296111413551592 0 -0.45424157777108431 -0.39771941950624429 0 -0.46580513808485952 -0.40720097659522703 0 -0.45424157777108431 -0.39771941950624429 0 -0.4401303772627107 -0.39849624588420229 0 -0.44515916753989071 -0.41138492090347151 0 -0.4401303772627107 -0.39849624588420229 0 -0.44893036415778431 -0.38519332779096588 0 -0.45424157777108431 -0.39771941950624429 0 -0.4401303772627107 -0.39849624588420229 0 -0.44893036415778431 -0.38519332779096588 0 -0.44893036415778431 -0.38519332779096588 0 -0.43231783629274662 -0.38694590254859312 0 -0.44665691257466639 -0.37079945177225498 0 -0.44893036415778431 -0.38519332779096588 0 -0.43231783629274662 -0.38694590254859312 0 -0.4401303772627107 -0.39849624588420229 0 -0.44893036415778431 -0.38519332779096588 0 -0.43231783629274662 -0.38694590254859312 0 -0.45998403061190962 -0.44090767400005842 0 -0.47279006340641172 -0.4320765313067908 0 -0.44870770712729352 -0.42475707638420102 0 -0.47279006340641172 -0.4320765313067908 0 -0.46580513808485952 -0.40720097659522703 0 -0.44870770712729352 -0.42475707638420102 0 -0.46580513808485952 -0.40720097659522703 0 -0.44515916753989071 -0.41138492090347151 0 -0.44870770712729352 -0.42475707638420102 0 -0.46580513808485952 -0.40720097659522703 0 -0.44870770712729352 -0.42475707638420102 0 -0.44515916753989071 -0.41138492090347151 0 -0.44870770712729352 -0.42475707638420102 0 -0.4334872299733879 -0.42703767035300488 0 -0.4401303772627107 -0.39849624588420229 0 -0.44515916753989071 -0.41138492090347151 0 -0.43133039036763759 -0.41179916397743899 0 -0.44870770712729352 -0.42475707638420102 0 -0.4334872299733879 -0.42703767035300488 0 -0.43161027616972908 -0.4423131761731765 0 -0.44870770712729352 -0.42475707638420102 0 -0.43161027616972908 -0.4423131761731765 0 -0.4334872299733879 -0.42703767035300488 0 -0.41107414328586639 -0.42604880416552421 0 -0.43161027616972908 -0.4423131761731765 0 -0.4334872299733879 -0.42703767035300488 0 -0.43133039036763759 -0.41179916397743899 0 -0.41107414328586639 -0.42604880416552421 0 -0.44515916753989071 -0.41138492090347151 0 -0.4334872299733879 -0.42703767035300488 0 -0.43133039036763759 -0.41179916397743899 0 -0.43133039036763759 -0.41179916397743899 0 -0.41030640034634391 -0.40758022093941909 0 -0.41107414328586639 -0.42604880416552421 0 -0.41107414328586639 -0.42604880416552421 0 -0.43161027616972908 -0.4423131761731765 0 -0.41107414328586639 -0.42604880416552421 0 -0.43161027616972908 -0.4423131761731765 0 -0.41467215241603039 -0.44050750500520103 0 -0.41107414328586639 -0.42604880416552421 0 -0.39968283381629433 -0.43198156449136138 0 -0.41467215241603039 -0.44050750500520103 0 -0.43231783629274662 -0.38694590254859312 0 -0.43426893443492998 -0.36312545369092991 0 -0.43231783629274662 -0.38694590254859312 0 -0.41154585003455407 -0.38913728841578937 0 -0.43133039036763759 -0.41179916397743899 0 -0.41030640034634391 -0.40758022093941909 0 -0.42512393561423778 -0.39881905389596062 0 -0.43231783629274662 -0.38694590254859312 0 -0.42512393561423778 -0.39881905389596062 0 -0.41154585003455407 -0.38913728841578937 0 -0.4401303772627107 -0.39849624588420229 0 -0.43231783629274662 -0.38694590254859312 0 -0.42512393561423778 -0.39881905389596062 0 -0.4401303772627107 -0.39849624588420229 0 -0.43133039036763759 -0.41179916397743899 0 -0.42512393561423778 -0.39881905389596062 0 -0.4401303772627107 -0.3984
[...]
<PointData Scalars="" Vectors="displacement," Tensors="">
<DataArray type="Float64" Name="displacement" NumberOfComponents="3" format="ascii">
-3.0904352936279878e-07 0.034998089965408187 0 -0.00022758229955302517 0.032944295435729166 0 7.9548007760410558e-07 0.031091062347137471 0 -3.0904352936279878e-07 0.034998089965408187 0 5.8280937770536034e-05 0.034052886701617983 0 3.3166426512456017e-07 0.034999339025658389 0 -3.0904352936279878e-07 0.034998089965408187 0 -0.00022758229955302517 0.032944295435729166 0 5.8280937770536034e-05 0.034052886701617983 0 6.144543560248112e-05 0.034012072293158994 0 -0.00057444052613297991 0.034908646035502568 0 -0.00022758229955302517 0.032944295435729166 0 5.8280937770536034e-05 0.034052886701617983 0 -0.0008923494177650995 0.034586496855857719 0 -7.8360478721966123e-05 0.034507316323315065 0 -9.2805193020848657e-05 0.034771451247454524 0 3.3166426512456017e-07 0.034999339025658389 0 5.8280937770536034e-05 0.034052886701617983 0 -7.8360478721966123e-05 0.034507316323315065 0 3.3166426512456017e-07 0.034999339025658389 0 5.8280937770536034e-05 0.034052886701617983 0 -7.8360478721966123e-05 0.034507316323315065 0 -0.00032662977211733382 0.034607633061004651 0 -7.8360478721966123e-05 0.034507316323315065 0 -0.00019854182317233146 0.034714357312824212 0 -0.00032662977211733382 0.034607633061004651 0 -7.8360478721966123e-05 0.034507316323315065 0 -0.00019854182317233146 0.034714357312824212 0 -9.2805193020848657e-05 0.034771451247454524 0 -0.00019854182317233146 0.034714357312824212 0 -0.00012556446889328194 0.034864417071374859 0 -0.00024304304747595348 0.034780653284895373 0 -0.00019854182317233146 0.034714357312824212 0 -9.2805193020848657e-05 0.034771451247454524 0 -0.00012556446889328194 0.034864417071374859 0 -0.00012556446889328194 0.034864417071374859 0 3.3166426512456017e-07 0.034999339025658389 0 -6.9461229640411089e-05 0.034950005917364538 0 -9.2805193020848657e-05 0.034771451247454524 0 -0.00012556446889328194 0.034864417071374859 0 3.3166426512456017e-07 0.034999339025658389 0 7.0801914037982513e-06 0.030406257031987283 0 0.00016536685247029915 0.030593465320730238 0 0.00022278077586238343 0.030458926766333827 0 7.0801914037982513e-06 0.030406257031987283 0 0.00022278077586238343 0.030458926766333827 0 8.3134161629724342e-05 0.03029190491567119 0 -0.00088297014006254572 0.033320483595794204 0 -0.00044320524517197203 0.027597703871626116 0 -0.00088297014006254572 0.033320483595794204 0 -0.00057444052613297991 0.034908646035502568 0 -0.0003291557093060691 0.034789592133140063 0 -0.00024304304747595348 0.034780653284895373 0 -0.00032662977211733382 0.034607633061004651 0 -0.0003291557093060691 0.034789592133140063 0 -0.00024304304747595348 0.034780653284895373 0 -0.00025558062736584644 0.034849789497418564 0 -0.00012556446889328194 0.034864417071374859 0 -0.00024304304747595348 0.034780653284895373 0 -0.00025558062736584644 0.034849789497418564 0 -0.00088297014006254572 0.033320483595794204 0 -0.00045907814380188628 0.032625376691473328 0 -0.0011508086468598648 0.03531531533998971 0 -0.0006816512478356703 0.034758113749520377 0 -0.0008923494177650995 0.034586496855857719 0 7.0801914037982513e-06 0.030406257031987283 0 -0.00024799570505514289 0.030843999584482706 0 1.0030196254867513e-05 0.030661761913921885 0 5.8280937770536034e-05 0.034052886701617983 0 -0.0006816512478356703 0.034758113749520377 0 -0.0008923494177650995 0.034586496855857719 0 -0.00019854182317233146 0.034714357312824212 0 -0.00024304304747595348 0.034780653284895373 0 -0.00032662977211733382 0.034607633061004651 0 9.538390402925821e-05 0.03084569408505846 0 1.0030196254867513e-05 0.030661761913921885 0 0.00016536685247029915 0.030593465320730238 0 9.538390402925821e-05 0.03084569408505846 0 0.00016536685247029915 0.030593465320730238 0 0.00024534058556288749 0.030493574499955229 0 7.0801914037982513e-06 0.030406257031987283 0 1.0030196254867513e-05 0.030661761913921885 0 0.00016536685247029915 0.030593465320730238 0 -0.00024799570505514289 0.030843999584482706 0 9.538390402925821e-05 0.03084569408505846 0 1.0030196254867513e-05 0.030661761913921885 0 -0.00024799570505514289 0.030843999584482706 0 9.538390402925821e-05 0.03084569408505846 0 0.00010953309568966353 0.031426397477905967 0 9.538390402925821e-05 0.03084569408505846 0 0.00010953309568966353 0.031426397477905967 0 0.00024534058556288749 0.030493574499955229 0 -0.00031746753998302313 0.032888103651928506 0 -0.00045907814380188628 0.032625376691473328 0 -0.00022758229955302517 0.032944295435729166 0 -0.00024799570505514289 0.030843999584482706 0 0.00010953309568966353 0.031426397477905967 0 -0.00022758229955302517 0.032944295435729166 0 0.00010953309568966353 0.031426397477905967 0 7.9548007760410558e-07 0.031091062347137471 0 0.00010953309568966353 0.031426397477905967 0 7.9548007760410558e-07 0.031091062347137471 0 0.00024534058556288749 0.030493574499955229 0 7.9548007760410558e-07 0.031091062347137471 0 9.1092053437740765e-05 0.029296797572727868 0 0.00024534058556288749 0.030493574499955229 0 7.9548007760410558e-07 0.031091062347137471 0 9.1092053437740765e-05 0.029296797572727868 0 -1.4122080802918032e-06 0.026050079899496821 0 9.1092053437740765e-05 0.029296797572727868 0 0.00024534058556288749 0.030493574499955229 0 2.1673156450216681e-05 0.030046894569742549 0 9.1092053437740765e-05 0.029296797572727868 0 -0.0001256534519291457 0.02730772476234011 0 -1.4122080802918032e-06 0.026050079899496821 0 0.00013813278102966673 0.026385563653803561 0 -8.1783927587276542e-08 0.02604644678811819 0 0.00013813278102966673 0.026385563653803561 0 0.00037363743006726735 0.027670040807760844 0 9.1092053437740765e-05 0.029296797572727868 0 -0.0001256534519291457 0.02730772476234011 0 -0.00018752410498140692 0.02852216644843026 0 0.00082043338445430126 0.026400408516459938 0 0.00062714195338569201 0.026765144842256738 0 0.00012488505776097421 0.026293214105922651 0 9.1092053437740765e-05 0.029296797572727868 0 -0.00018752410498140692 0.02852216644843026 0 2.1673156450216681e-05 0.030046894569742549 0 0.00037363743006726735 0.027670040807760844 0 9.2171156660793776e-05 0.028145367896403775 0 -0.00052579951759571572 0.025263438726534315 0 -0.00053840060782333753 0.024475987665293131 0 -0.00010046979630845275 0.024657979201898234 0 0.00086357378225436618 0.026999031370810996 0 0.00082043338445430126 0.026400408516459938 0 0.00062714195338569201 0.026765144842256738 0 0.00013813278102966673 0.026385563653803561 0 0.00014141722853155551 0.025409610780975943 0 -0.00053840060782333753 0.024475987665293131 0 -0.00057683118714888057 0.023943212241279724 0 -0.00010348828622690662 0.024251524425756774 0 2.8187270331730647e-05 0.024803056932374831 0 -0.00044979558300633512 0.023895316092703203 0 0.00014141722853155551 0.025409610780975943 0 2.8187270331730647e-05 0.024803056932374831 0 0.00082043338445430126 0.026400408516459938 0 0.0004030422518544893 0.025940642464794515 0 0.00076756897597808117 0.025778516364444819 0 0.0004030422518544893 0.025940642464794515 0 0.00012488505776097421 0.026293214105922651 0 -7.5935866493254281e-06 0.025666820178866432 0 0.00082043338445430126 0.026400408516459938 0 0.0004030422518544893 0.025940642464794515 0 0.00012488505776097421 0.026293214105922651 0 0.0004030422518544893 0.025940642464794515 0 0.00038698375979340715 0.025510947067013574 0 -7.5935866493254281e-06 0.025666820178866432 0 0.00054382714898561473 0.025567728101296754 0 2.8187270331730647e-05 0.024803056932374831 0 0.0004030422518544893 0.025940642464794515 0 0.00038698375979340715 0.025510947067013574 0 0.00076756897597808117 0.025778516364444819 0 -0.00064366841944848204 0.023694387915802195 0 -0.00065886232688040108 0.023521581578625956 0 -0.00049981081781405611 0.02366708631358419 0 2.8187270331730647e-05 0.024803056932374831 0 6.5693433416645655e-05 0.023686064817779198 0 0.00040770180715591362 0.02545421058428729 0 0.00080002399119472902 0.025702018537542785 0 0.00076065619822864418 0.025210896804394606 0 0.00016536685247029915 0.030593465320730238 0 0.00024534058556288749 0.030493574499955229 0 0.00022278077586238343 0.030458926766333827 0 0.00024534058556288749 0.030493574499955229 0 2.1673156450216681e-05 0.030046894569742549 0 0.00022278077586238343 0.030458926766333827 0 0.00012488505776097421 0.026293214105922651 0 -7.5935866493254281e-06 0.025666820178866432 0 -0.00042738270113994306 0.025788069435407599 0 9.2171156660793776e-05 0.028145367896403775 0 -9.6184824589381056e-05 0.028139577434625033 0 -7.5935866493254281e-06 0.025666820178866432 0 -0.00042738270113994306 0.025788069435407599 0 -0.000509617116448196 0.025292408256656112 0 0.00038698375979340715 0.025510947067013574 0 -7.5935866493254281e-06 0.025666820178866432 0 -1.7307032367969208e-05 0.025209513268293748 0 -0.00042738270113994306 0.025788069435407599 0 -0.000509617116448196 0.025292408256656112 0 -0.0010069989031423017 0.025243062730978615 0 -9.6184824589381056e-05 0.028139577434625033 0 -0.00044320524517197203 0.027597703871626116 0 -0.000509617116448196 0.025292408256656112 0 -0.00048558758650504581 0.024545396198602451 0 -0.0010069989031423017 0.025243062730978615 0 -0.000509617116448196 0.025292408256656112 0 -1.7307032367969208e-05 0.025209513268293748 0 -0.00048558758650504581 0.024545396198602451 0 -7.5935866493254281e-06 0.025666820178866432 0 -0.000509617116448196 0.025292408256656112 0 -1.7307032367969208e-05 0.025209513268293748 0 -1.7307032367969208e-05 0.025209513268293748 0 0.00011608312039004145 0.024511421221071871 0 -0.00048558758650504581 0.024545396198602451 0 -0.00040884157560039082 0.0242973651722245 0 -0.00044320524517197203 0.027597703871626116 0 -0.00036640337301050585 0.024769044216118318 0 -0.00099837796953410594 0.025693857740023914 0 -0.00093616647265259783 0.024949329862823385 0 -0.00036640337301050585 0.024769044216118318 0 -0.00061649352654283827 0.024302583578009806 0 -0.00093616647265259783 0.024949329862823385 0 6.5693433416645655e-05 0.023686064817779198 0 5.719105988822287e-06 0.022606035913313345 0 6.5693433416645655e-05 0.023686064817779198 0 0.0007077588876236115 0.023252771068777121 0 -1.7307032367969208e-05 0.025209513268293748 0 0.00011608312039004145 0.024511421221071871 0 0.00039812074559517974 0.024992751213505228 0 0.00076065619822864418 0.025210896804394606 0 0.00039812074559517974 0.024992751213505228 0 0.00071642552346148848 0.024545342236354913 0 0.00040770180715591362 0.02545421058428729 0 0.00076065619822864418 0.025210896804394606 0 0.00039812074559517974 0.024992751213505228 0 0.00040770180715591362 0.02545421058428729 0 -1.7307032367969208e-05 0.025209513268293748 0 0.00039812074559517974 0.024992751213505228 0 0.00054382714898561473 0.025567728101296754 0 -1.197035843991279e-05 0.025211925393525587 0 0.00011608312039004145 0.024511421221071871 0 0.00039812074559517974 0.024992751213505228 0 0.00071642552346148848 0.024545342236354913 0 0.00060235059065735655 0.021882354554620675 0 0.00063030314202142254 0.021990430268643148 0 0.0005250391722496304 0.021933115733426004 0 0.00063030314202142254 0.021990430268643148 0 0.0005250391722496304 0.021933115733426004 0 0.00049434776320560778 0.02200997033370904 0 0.0007077588876236115 0.023252771068777121 0 0.00065199834166079068 0.022991394845186048 0 0.00063030314202142254 0.021990430268643148 0 0.00054887852212774245 0.022119434352201563 0 0.00049434776320560778 0.02200997033370904 0 0.00063030314202142254 0.021990430268643148 0 0.00054887852212774245 0.022119434352201563 0 0.00066413260989867215 0.022151975763397006 0 0.00011608312039004145 0.024511421221071871 0 0.00071642552346148848 0.024545342236354913 0 0.00065379095085110804 0.02385367061965905 0 0.00011608312039004145 0.024511421221071871 0 0.00065379095085110804 0.02385367061965905 0 4.039103400866718e-05 0.023850327923012352 0 0.0001662041895663939 0.023862513073968764 0 -9.3130353741376761e-06 0.023000499836535241 0 0.0006101758998291923 0.022919473132291507 0 0.00065199834166079068 0.022991394845186048 0 0.00057673212248259139 0.022874840411351842 0 0.00065379095085110804 0.02385367061965905 0 4.039103400866718e-05 0.023850327923012352 0 0.00058213623949936633 0.023153833344831103 0 6.8896917988746066e-05 0.023954598874630823 0 0.00057673212248259139 0.022874840411351842 0 0.00066413260989867215 0.022151975763397006 0 0.0005641697635683624 0.022290281719772497 0 0.00062890699748326681 0.022442530813362935 0 0.00054887852212774245 0.022119434352201563 0 0.00066413260989867215 0.022151975763397006 0 0.0005641697635683624 0.022290281719772497 0 0.0005641697635683624 0.022290281719772497 0 0.00051881761822591716 0.022233525283040789 0 0.00053820605595422569 0.022350321978625295 0 0.00054887852212774245 0.022119434352201563 0 0.0005641697635683624 0.022290281719772497 0 0.00051881761822591716 0.022233525283040789 0 -0.00036640337301050585 0.024769044216118318 0 -0.00061649352654283827 0.024302583578009806 0 0.0001662041895663939 0.023862513073968764 0 -0.00061649352654283827 0.024302583578009806 0 0.0001662041895663939 0.023862513073968764 0 -0.00068330816043363468 0.023693657722505007 0 -0.00040884157560039082 0.0242973651722245 0 6.8896917988746066e-05 0.023954598874630823 0 0.00011608312039004145 0.024511421221071871 0 -0.00048558758650504581 0.024545396198602451 0 4.039103400866718e-05 0.023850327923012352 0 0.0001662041895663939 0.023862513073968764 0 -0.00068330816043363468 0.023693657722505007 0 -9.3130353741376761e-06 0.023000499836535241 0 -0.00068330816043363468 0.023693657722505007 0 -0.0012580887660717868 0.023463656796973219 0 -0.0013046218388059071 0.024261206247756118 0 -0.00061649352654283827 0.024302583578009806 0 -0.0013046218388059071 0.024261206247756118 0 -0.00093616647265259783 0.024949329862823385 0 -0.00061649352654283827 0.024302583578009806 0 -0.00068330816043363468 0.023693657722505007 0 -0.0013046218388059071 0.024261206247756118 0 -0.00097087966726287311 0.026583824729553993 0 -0.00063936084162970707 0.030450870987660018 0 -0.0013046218388059071 0.024261206247756118 0 -0.0018136783594777839 0.02374879283871888 0 -0.0020767476043412661 0.024584247555174878 0 -0.0013046218388059071 0.024261206247756118 0 -0.0020767476043412661 0.024584247555174878 0 -0.0016139102320457727 0.025043221834311988 0 -0.0012580887660717868 0.023463656796973219 0 -0.0013046218388059071 0.024261206247756118 0 -0.0018136783594777839 0.02374879283871888 0 -0.00019965652423657008 0.030205876422702969 0 -0.00034388184639790216 0.030179712235384286 0 -0.00029264915301132596 0.029994440146350547 0 -0.00019965652423657008 0.030205876422702969 0 -0.00034388184639790216 0.030179712235384286 0 -0.0003803895927849745 0.030309666681813917 0 -1.3910274914072386e-05 0.035008404515573278 0 3.1290267578247284e-08 0.035000004971746219 0 -5.6912671216813616e-05 0.035002823955850089 0 -0.00034388184639790216 0.030179712235384286 0 -0.00050223265308463186 0.030207669811706941 0 -0.0003803895927849745 0.030309666681813917 0 1.2178830505507024e-09 0.034999995284966945 0 -4.7210851217506382e-08 0.034996621117336313 0 -1.1999331473188107e-09 0.034999994591461969 0 -5.6044664413200131e-05 0.033277640558033152 0 -8.8223621167327479e-07 0.034998419475981313 0 7.812717842876406e-07 0.034998724852756548 0 -5.6044664413200131e-05 0.033277640558033152 0 -5.6044664413200131e-05 0.033277640558033152 0 -7.1060097714517739e-05 0.032804743292472342 0 3.1290267578247284e-08 0.035000004971746219 0 -5.6898224249691065e-05 0.034992714157893984 0 -1.734368986830264e-07 0.035000079053266908 0 3.1290267578247284e-08 0.035000004971746219 0 -5.6898224249691065e-05 0.034992714157893984 0 -5.6912671216813616e-05 0.035002823955850089 0 -0.00019965652423657008 0.030205876422702969 0 -0.0003803895927849745 0.030309666681813917 0 -0.00026264381246427062 0.030418822850158709 0 -5.6898224249691065e-05 0.034992714157893984 0 -5.6912671216813616e-05 0.035002823955850089 0 -0.00012797196771389486 0.034979424650601915 0 -7.1060097714517739e-05 0.032804743292472342 0 -0.00063936084162970707 0.030450870987660018 0 3.3166426512456017e-07 0.034999339025658389 0 -1.734368986830264e-07 0.035000079053266908 0 -6.9461229640411089e-05 0.034950005917364538 0 -0.00063936084162970707 0.030450870987660018 0 -0.00099391790629355949 0.034677395463361439 0 -5.6898224249691065e-05 0.034992714157893984 0 -0.00013389563672458138 0.034964641569468796 0 -6.9461229640411089e-05 0.034950005917364538 0 -5.6898224249691065e-05 0.034992714157893984 0 -0.00012797196771389486 0.034979424650601915 0 -0.00013389563672458138 0.034964641569468796 0 -0.00013389563672458138 0.034964641569468796 0 -0.00016531862002650563 0.034915839708617662 0 -6.9461229640411089e-05 0.034950005917364538 0 -5.6898224249691065e-05 0.034992714157893984 0 -1.734368986830264e-07 0.035000079053266908 0 -6.9461229640411089e-05 0.034950005917364538 0 -0.00012556446889328194 0.034864417071374859 0 -0.00016531862002650563 0.034915839708617662 0 -6.9461229640411089e-05 0.034950005917364538 0 -0.00012556446889328194 0.034864417071374859 0 -0.00016531862002650563 0.034915839708617662 0 -0.00025558062736584644 0.034849789497418564 0 -0.00016531862002650563 0.034915839708617662 0 -0.00025558062736584644 0.034849789497418564 0 -0.00025270214145127853 0.034937692988258204 0 -0.00025558062736584644 0.034849789497418564 0 -0.00034405505694304708 0.03485779305747333 0 -0.00025270214145127853 0.034937692988258204 0 -0.001747957250289215 0.032332401772552213 0 0.00061464695338363966 0.029330623103387746 0 -0.00022870269558625776 0.028509742611986282 0 -0.00088297014006254572 0.033320483595794204 0 -0.00042606256700104128 0.02924019612272891 0 -0.0003291557093060691 0.034789592133140063 0 -0.00025558062736584644 0.034849789497418564 0 -0.00034405505694304708 0.03485779305747333 0 -0.00099837796953410594 0.025693857740023914 0 -0.0011549798189518172 0.02554548409762802 0 -0.00093616647265259783 0.024949329862823385 0 -0.00044320524517197203 0.027597703871626116 0 -0.00042606256700104128 0.02924019612272891 0 -0.00042606256700104128 0.02924019612272891 0 -0.00097035472671346749 0.02994398933808361 0 -0.0013046218388059071 0.024261206247756118 0 -0.00093616647265259783 0.024949329862823385 0 -0.0016139102320457727 0.025043221834311988 0 -0.001137920070879967 0.02553097269813745 0 -0.00093616647265259783 0.024949329862823385 0 -0.0016139102320457727 0.025043221834311988 0 -0.00042606256700104128 0.02924019612272891 0 -0.0004047799722327055 0.02433366578154476 0 -0.00063936084162970707 0.030450870987660018 0 -0.00097035472671346749 0.02994398933808361 0 -0.00015316204437896969 0.03499474222678163 0 -0.00013389563672458138 0.034964641569468796 0 -0.00025270214145127853 0.034937692988258204 0 -0.00013389563672458138 0.034964641569468796 0 -0.00016531862002650563 0.034915839708617662 0 -0.00025270214145127853 0.034937692988258204 0 0.00023862088801382482 0.016371262024144372 0 0.00024895257221773428 0.016509158714184069 0 0.00026390185470522183 0.015477588642232502 0 0.00023862088801382482 0.016371262024144372 0 4.7675904533865208e-05 0.01734199400007911 0 -0.00039666914247479644 0.01657786124754293 0 0.00036389564067199526 0.013714961557162874 0 0.00012914907669461632 0.018381442668843714 0 0.00023862088801382482 0.016371262024144372 0 4.7675904533865208e-05 0.01734199400007911 0 0.00024895257221773428 0.016509158714184069 0 0.00024895257221773428 0.016509158714184069 0 1.3102081196579143e-07 0.017681936835456439 0 0.00013719613914317004 0.017930681842596975 0 1.3102081196579143e-07 0.017681936835456439 0 0.00013719613914317004 0.017930681842596975 0 1.2491967998028648e-06 0.019759716442486482 0 4.7675904533865208e-05 0.01734199400007911 0 0.00024895257221773428 0.016509158714184069 0 0.00013719613914317004 0.017930681842596975 0 4.7675904533865208e-05 0.01734199400007911 0 0.00013719613914317004 0.017930681842596975 0 -0.00015130399099019001 0.01923051660857408 0 4.7675904533865208e-05 0.01734199400007911 0 -0.00015130399099019001 0.01923051660857408 0 -0.00085684877056