<?xml version="1.0"?>
<VTKFile type="UnstructuredGrid" version="0.1" byte_order="LittleEndian">
<UnstructuredGrid>
<Piece NumberOfPoints="30165" NumberOfCells="10568">
<Points>
<DataArray type="Float64" NumberOfComponents="3" format="ascii">
-0.5 -0.5 0 -0.48557885346171648 -0.46885053676397009 0 -0.5 -0.44415255583246172 0 -0.5 -0.5 0 -0.47728374131135282 -0.47848601514655281 0 -0.45035377200572169 -0.5 0 -0.5 -0.5 0 -0.48557885346171648 -0.46885053676397009 0 -0.47728374131135282 -0.47848601514655281 0 -0.47728374131135282 -0.47848601514655281 0 -0.46077548898164661 -0.46541167643802228 0 -0.48557885346171648 -0.46885053676397009 0 -0.47728374131135282 -0.47848601514655281 0 -0.46492304505682819 -0.46059393724673148 0 -0.46313952970183631 -0.47751028294107861 0 -0.45265480897321242 -0.48120311832729562 0 -0.45035377200572169 -0.5 0 -0.47728374131135282 -0.47848601514655281 0 -0.46313952970183631 -0.47751028294107861 0 -0.45035377200572169 -0.5 0 -0.47728374131135282 -0.47848601514655281 0 -0.46313952970183631 -0.47751028294107861 0 -0.46077548898164661 -0.46541167643802228 0 -0.46313952970183631 -0.47751028294107861 0 -0.45409619721824351 -0.47202162727938068 0 -0.46077548898164661 -0.46541167643802228 0 -0.46313952970183631 -0.47751028294107861 0 -0.45409619721824351 -0.47202162727938068 0 -0.45265480897321242 -0.48120311832729562 0 -0.45409619721824351 -0.47202162727938068 0 -0.44067496173551068 -0.47637815741049588 0 -0.4467296384179279 -0.46618740067876702 0 -0.45409619721824351 -0.47202162727938068 0 -0.45265480897321242 -0.48120311832729562 0 -0.44067496173551068 -0.47637815741049588 0 -0.44067496173551068 -0.47637815741049588 0 -0.45035377200572169 -0.5 0 -0.42462352548853921 -0.48367618894840092 0 -0.45265480897321242 -0.48120311832729562 0 -0.44067496173551068 -0.47637815741049588 0 -0.45035377200572169 -0.5 0 -0.44426723665194012 -0.45233733772949231 0 -0.45998403061190962 -0.44090767400005842 0 -0.44870770712729352 -0.42475707638420102 0 -0.44426723665194012 -0.45233733772949231 0 -0.44870770712729352 -0.42475707638420102 0 -0.43161027616972908 -0.4423131761731765 0 -0.44426723665194012 -0.45233733772949231 0 -0.43161027616972908 -0.4423131761731765 0 -0.44426723665194012 -0.45233733772949231 0 -0.46077548898164661 -0.46541167643802228 0 -0.44426723665194012 -0.45233733772949231 0 -0.4467296384179279 -0.46618740067876702 0 -0.46077548898164661 -0.46541167643802228 0 -0.44426723665194012 -0.45233733772949231 0 -0.4467296384179279 -0.46618740067876702 0 -0.43542182626249099 -0.46109138449920611 0 -0.44067496173551068 -0.47637815741049588 0 -0.4467296384179279 -0.46618740067876702 0 -0.43542182626249099 -0.46109138449920611 0 -0.44426723665194012 -0.45233733772949231 0 -0.46492304505682819 -0.46059393724673148 0 -0.44426723665194012 -0.45233733772949231 0 -0.46077548898164661 -0.46541167643802228 0 -0.46492304505682819 -0.46059393724673148 0 -0.44426723665194012 -0.45233733772949231 0 -0.46492304505682819 -0.46059393724673148 0 -0.45937837573033963 -0.45050397192418318 0 -0.47728374131135282 -0.47848601514655281 0 -0.46077548898164661 -0.46541167643802228 0 -0.46492304505682819 -0.46059393724673148 0 -0.45409619721824351 -0.47202162727938068 0 -0.4467296384179279 -0.46618740067876702 0 -0.46077548898164661 -0.46541167643802228 0 -0.46833919060068091 -0.4481769387204505 0 -0.45937837573033963 -0.45050397192418318 0 -0.45998403061190962 -0.44090767400005842 0 -0.46833919060068091 -0.4481769387204505 0 -0.45998403061190962 -0.44090767400005842 0 -0.47279006340641172 -0.4320765313067908 0 -0.44426723665194012 -0.45233733772949231 0 -0.45937837573033963 -0.45050397192418318 0 -0.45998403061190962 -0.44090767400005842 0 -0.46492304505682819 -0.46059393724673148 0 -0.46833919060068091 -0.4481769387204505 0 -0.45937837573033963 -0.45050397192418318 0 -0.46492304505682819 -0.46059393724673148 0 -0.46833919060068091 -0.4481769387204505 0 -0.48123396957124348 -0.44975431698105828 0 -0.46833919060068091 -0.4481769387204505 0 -0.48123396957124348 -0.44975431698105828 0 -0.47279006340641172 -0.4320765313067908 0 -0.48557885346171648 -0.46885053676397009 0 -0.46492304505682819 -0.46059393724673148 0 -0.48557885346171648 -0.46885053676397009 0 -0.46492304505682819 -0.46059393724673148 0 -0.48123396957124348 -0.44975431698105828 0 -0.48557885346171648 -0.46885053676397009 0 -0.48123396957124348 -0.44975431698105828 0 -0.5 -0.44415255583246172 0 -0.48123396957124348 -0.44975431698105828 0 -0.5 -0.44415255583246172 0 -0.47279006340641172 -0.4320765313067908 0 -0.5 -0.44415255583246172 0 -0.48429955410673942 -0.4090327435116029 0 -0.47279006340641172 -0.4320765313067908 0 -0.5 -0.44415255583246172 0 -0.48429955410673942 -0.4090327435116029 0 -0.4999999999999945 -0.37208877701728182 0 -0.48429955410673942 -0.4090327435116029 0 -0.47279006340641172 -0.4320765313067908 0 -0.46580513808485952 -0.40720097659522703 0 -0.48429955410673942 -0.4090327435116029 0 -0.49142143889205891 -0.38089747320271861 0 -0.4999999999999945 -0.37208877701728182 0 -0.49142143889205891 -0.38089747320271861 0 -0.4999999999999945 -0.37208877701728182 0 -0.49142143889205891 -0.38089747320271861 0 -0.48290256904242562 -0.38964487680625298 0 -0.48429955410673942 -0.4090327435116029 0 -0.49142143889205891 -0.38089747320271861 0 -0.48290256904242562 -0.38964487680625298 0 -0.47008935403284668 -0.38296111413551592 0 -0.48290256904242562 -0.38964487680625298 0 -0.46580513808485952 -0.40720097659522703 0 -0.48429955410673942 -0.4090327435116029 0 -0.48290256904242562 -0.38964487680625298 0 -0.46580513808485952 -0.40720097659522703 0 -0.48290256904242562 -0.38964487680625298 0 -0.46580513808485952 -0.40720097659522703 0 -0.49142143889205891 -0.38089747320271861 0 -0.47008935403284668 -0.38296111413551592 0 -0.47726408907961781 -0.36833266302032891 0 -0.49142143889205891 -0.38089747320271861 0 -0.47008935403284668 -0.38296111413551592 0 -0.48290256904242562 -0.38964487680625298 0 -0.49142143889205891 -0.38089747320271861 0 -0.47008935403284668 -0.38296111413551592 0 -0.47008935403284668 -0.38296111413551592 0 -0.44893036415778431 -0.38519332779096588 0 -0.46079299710181632 -0.36726061535557009 0 -0.44893036415778431 -0.38519332779096588 0 -0.46079299710181632 -0.36726061535557009 0 -0.47008935403284668 -0.38296111413551592 0 -0.44893036415778431 -0.38519332779096588 0 -0.47008935403284668 -0.38296111413551592 0 -0.45424157777108431 -0.39771941950624429 0 -0.44893036415778431 -0.38519332779096588 0 -0.45424157777108431 -0.39771941950624429 0 -0.46580513808485952 -0.40720097659522703 0 -0.44515916753989071 -0.41138492090347151 0 -0.47008935403284668 -0.38296111413551592 0 -0.45424157777108431 -0.39771941950624429 0 -0.46580513808485952 -0.40720097659522703 0 -0.45424157777108431 -0.39771941950624429 0 -0.4401303772627107 -0.39849624588420229 0 -0.44515916753989071 -0.41138492090347151 0 -0.4401303772627107 -0.39849624588420229 0 -0.44893036415778431 -0.38519332779096588 0 -0.45424157777108431 -0.39771941950624429 0 -0.4401303772627107 -0.39849624588420229 0 -0.44893036415778431 -0.38519332779096588 0 -0.44893036415778431 -0.38519332779096588 0 -0.43231783629274662 -0.38694590254859312 0 -0.44665691257466639 -0.37079945177225498 0 -0.44893036415778431 -0.38519332779096588 0 -0.43231783629274662 -0.38694590254859312 0 -0.4401303772627107 -0.39849624588420229 0 -0.44893036415778431 -0.38519332779096588 0 -0.43231783629274662 -0.38694590254859312 0 -0.45998403061190962 -0.44090767400005842 0 -0.47279006340641172 -0.4320765313067908 0 -0.44870770712729352 -0.42475707638420102 0 -0.47279006340641172 -0.4320765313067908 0 -0.46580513808485952 -0.40720097659522703 0 -0.44870770712729352 -0.42475707638420102 0 -0.46580513808485952 -0.40720097659522703 0 -0.44515916753989071 -0.41138492090347151 0 -0.44870770712729352 -0.42475707638420102 0 -0.46580513808485952 -0.40720097659522703 0 -0.44870770712729352 -0.42475707638420102 0 -0.44515916753989071 -0.41138492090347151 0 -0.44870770712729352 -0.42475707638420102 0 -0.4334872299733879 -0.42703767035300488 0 -0.4401303772627107 -0.39849624588420229 0 -0.44515916753989071 -0.41138492090347151 0 -0.43133039036763759 -0.41179916397743899 0 -0.44870770712729352 -0.42475707638420102 0 -0.4334872299733879 -0.42703767035300488 0 -0.43161027616972908 -0.4423131761731765 0 -0.44870770712729352 -0.42475707638420102 0 -0.43161027616972908 -0.4423131761731765 0 -0.4334872299733879 -0.42703767035300488 0 -0.41107414328586639 -0.42604880416552421 0 -0.43161027616972908 -0.4423131761731765 0 -0.4334872299733879 -0.42703767035300488 0 -0.43133039036763759 -0.41179916397743899 0 -0.41107414328586639 -0.42604880416552421 0 -0.44515916753989071 -0.41138492090347151 0 -0.4334872299733879 -0.42703767035300488 0 -0.43133039036763759 -0.41179916397743899 0 -0.43133039036763759 -0.41179916397743899 0 -0.41030640034634391 -0.40758022093941909 0 -0.41107414328586639 -0.42604880416552421 0 -0.41107414328586639 -0.42604880416552421 0 -0.43161027616972908 -0.4423131761731765 0 -0.41107414328586639 -0.42604880416552421 0 -0.43161027616972908 -0.4423131761731765 0 -0.41467215241603039 -0.44050750500520103 0 -0.41107414328586639 -0.42604880416552421 0 -0.39968283381629433 -0.43198156449136138 0 -0.41467215241603039 -0.44050750500520103 0 -0.43231783629274662 -0.38694590254859312 0 -0.43426893443492998 -0.36312545369092991 0 -0.43231783629274662 -0.38694590254859312 0 -0.41154585003455407 -0.38913728841578937 0 -0.43133039036763759 -0.41179916397743899 0 -0.41030640034634391 -0.40758022093941909 0 -0.42512393561423778 -0.39881905389596062 0 -0.43231783629274662 -0.38694590254859312 0 -0.42512393561423778 -0.39881905389596062 0 -0.41154585003455407 -0.38913728841578937 0 -0.4401303772627107 -0.39849624588420229 0 -0.43231783629274662 -0.38694590254859312 0 -0.42512393561423778 -0.39881905389596062 0 -0.4401303772627107 -0.39849624588420229 0 -0.43133039036763759 -0.41179916397743899 0 -0.42512393561423778 -0.39881905389596062 0 -0.4401303772627107 -0.3984
[...]
<PointData Scalars="" Vectors="displacement," Tensors="">
<DataArray type="Float64" Name="displacement" NumberOfComponents="3" format="ascii">
0.034997645765262306 -6.0640703526538406e-08 0 0.034473040891592616 5.6647449428899507e-05 0 0.034999362481015553 2.0382845600143977e-07 0 0.034997645765262306 -6.0640703526538406e-08 0 0.033633418738885444 -0.00017986980753735744 0 0.031525870542580416 1.2356403005762051e-07 0 0.034997645765262306 -6.0640703526538406e-08 0 0.034473040891592616 5.6647449428899507e-05 0 0.033633418738885444 -0.00017986980753735744 0 0.033402756608212451 -0.00021639591699404209 0 0.033008048248245651 -0.00047778504378720405 0 0.034473040891592616 5.6647449428899507e-05 0 0.033633418738885444 -0.00017986980753735744 0 0.034671141381486623 -0.00090026948262727255 0 0.032472172238113932 -2.2456827132014129e-05 0 0.031790707719516774 8.979458839909899e-05 0 0.031525870542580416 1.2356403005762051e-07 0 0.033633418738885444 -0.00017986980753735744 0 0.032472172238113932 -2.2456827132014129e-05 0 0.031525870542580416 1.2356403005762051e-07 0 0.033633418738885444 -0.00017986980753735744 0 0.032472172238113932 -2.2456827132014129e-05 0 0.031539841613370825 -5.9988224481868548e-05 0 0.032472172238113932 -2.2456827132014129e-05 0 0.031697633216770708 0.00013553501585273936 0 0.031539841613370825 -5.9988224481868548e-05 0 0.032472172238113932 -2.2456827132014129e-05 0 0.031697633216770708 0.00013553501585273936 0 0.031790707719516774 8.979458839909899e-05 0 0.031697633216770708 0.00013553501585273936 0 0.031159440811267394 0.00023433042996198676 0 0.031314889466640634 0.00023415188547608546 0 0.031697633216770708 0.00013553501585273936 0 0.031790707719516774 8.979458839909899e-05 0 0.031159440811267394 0.00023433042996198676 0 0.031159440811267394 0.00023433042996198676 0 0.031525870542580416 1.2356403005762051e-07 0 0.030242819845530722 0.00019960110830271992 0 0.031790707719516774 8.979458839909899e-05 0 0.031159440811267394 0.00023433042996198676 0 0.031525870542580416 1.2356403005762051e-07 0 0.034744722718561404 -0.00031393113971264048 0 0.034836961003672638 -0.00020993450465832319 0 0.034923834970419697 -0.00026393841562147324 0 0.034744722718561404 -0.00031393113971264048 0 0.034923834970419697 -0.00026393841562147324 0 0.034790196725009485 -0.00039039474181322561 0 0.033155107994427176 -0.00079784614498436257 0 0.031015001952062866 -0.0002302358909039523 0 0.033155107994427176 -0.00079784614498436257 0 0.033008048248245651 -0.00047778504378720405 0 0.031016819898235851 0.00026642029321404242 0 0.031314889466640634 0.00023415188547608546 0 0.031539841613370825 -5.9988224481868548e-05 0 0.031016819898235851 0.00026642029321404242 0 0.031314889466640634 0.00023415188547608546 0 0.031011217290759799 0.00030533881497817592 0 0.031159440811267394 0.00023433042996198676 0 0.031314889466640634 0.00023415188547608546 0 0.031011217290759799 0.00030533881497817592 0 0.033155107994427176 -0.00079784614498436257 0 0.034846586464390913 -0.00066921547458973125 0 0.034972305900052993 -0.0018258858212971559 0 0.034417767711303546 -0.0011048565167355656 0 0.034671141381486623 -0.00090026948262727255 0 0.034744722718561404 -0.00031393113971264048 0 0.034684609819039279 -0.00021774495023354338 0 0.034768620913097771 -0.00022933180716984864 0 0.033633418738885444 -0.00017986980753735744 0 0.034417767711303546 -0.0011048565167355656 0 0.034671141381486623 -0.00090026948262727255 0 0.031697633216770708 0.00013553501585273936 0 0.031314889466640634 0.00023415188547608546 0 0.031539841613370825 -5.9988224481868548e-05 0 0.03480494040447444 -0.00016440174699449632 0 0.034768620913097771 -0.00022933180716984864 0 0.034836961003672638 -0.00020993450465832319 0 0.03480494040447444 -0.00016440174699449632 0 0.034836961003672638 -0.00020993450465832319 0 0.034920552336847308 -0.00010602718603307643 0 0.034744722718561404 -0.00031393113971264048 0 0.034768620913097771 -0.00022933180716984864 0 0.034836961003672638 -0.00020993450465832319 0 0.034684609819039279 -0.00021774495023354338 0 0.03480494040447444 -0.00016440174699449632 0 0.034768620913097771 -0.00022933180716984864 0 0.034684609819039279 -0.00021774495023354338 0 0.03480494040447444 -0.00016440174699449632 0 0.034829419208611233 -7.1143289313251124e-05 0 0.03480494040447444 -0.00016440174699449632 0 0.034829419208611233 -7.1143289313251124e-05 0 0.034920552336847308 -0.00010602718603307643 0 0.034433588798877118 8.422307919601144e-05 0 0.034846586464390913 -0.00066921547458973125 0 0.034473040891592616 5.6647449428899507e-05 0 0.034684609819039279 -0.00021774495023354338 0 0.034829419208611233 -7.1143289313251124e-05 0 0.034473040891592616 5.6647449428899507e-05 0 0.034829419208611233 -7.1143289313251124e-05 0 0.034999362481015553 2.0382845600143977e-07 0 0.034829419208611233 -7.1143289313251124e-05 0 0.034999362481015553 2.0382845600143977e-07 0 0.034920552336847308 -0.00010602718603307643 0 0.034999362481015553 2.0382845600143977e-07 0 0.034994807825793506 -3.89216574733939e-05 0 0.034920552336847308 -0.00010602718603307643 0 0.034999362481015553 2.0382845600143977e-07 0 0.034994807825793506 -3.89216574733939e-05 0 0.035000343043996331 -1.83699299410153e-07 0 0.034994807825793506 -3.89216574733939e-05 0 0.034920552336847308 -0.00010602718603307643 0 0.035003146287026006 -0.00012269059472561869 0 0.034994807825793506 -3.89216574733939e-05 0 0.035001380084691593 -1.6283463101983956e-05 0 0.035000343043996331 -1.83699299410153e-07 0 0.033706172433168417 0.00044826976631887375 0 0.03499982381096288 5.1919574128811122e-07 0 0.033706172433168417 0.00044826976631887375 0 0.033275061422102806 0.0003542145192403296 0 0.034994807825793506 -3.89216574733939e-05 0 0.035001380084691593 -1.6283463101983956e-05 0 0.035004883229523512 -3.4494013299754641e-05 0 0.031642643106818559 0.00051627994972547721 0 0.031506969365678421 0.00080212959782913781 0 0.031100833110126975 0.00041462011135013748 0 0.034994807825793506 -3.89216574733939e-05 0 0.035004883229523512 -3.4494013299754641e-05 0 0.035003146287026006 -0.00012269059472561869 0 0.033275061422102806 0.0003542145192403296 0 0.033003514186677414 0.00011781656364257049 0 0.034977072617416047 9.3823391770985583e-06 0 0.034939214413489676 -2.5095203400768876e-07 0 0.034975216815830178 6.46065381014212e-06 0 0.031720951069383128 0.0009920177963403476 0 0.031642643106818559 0.00051627994972547721 0 0.031506969365678421 0.00080212959782913781 0 0.033706172433168417 0.00044826976631887375 0 0.033305937352375893 0.00030943781888180001 0 0.034939214413489676 -2.5095203400768876e-07 0 0.034906071765407651 -5.6094787450452258e-05 0 0.034969056864234571 -1.7405193380165735e-05 0 0.032758204161780165 -0.00020342263944601958 0 0.034559921682309556 -0.00017159587155144533 0 0.033305937352375893 0.00030943781888180001 0 0.032758204161780165 -0.00020342263944601958 0 0.031642643106818559 0.00051627994972547721 0 0.031293187774534915 0.00018179896455448457 0 0.031565616859946473 6.8953120155606563e-05 0 0.031293187774534915 0.00018179896455448457 0 0.031100833110126975 0.00041462011135013748 0 0.030996928124035442 3.7503095466750789e-06 0 0.031642643106818559 0.00051627994972547721 0 0.031293187774534915 0.00018179896455448457 0 0.031100833110126975 0.00041462011135013748 0 0.031293187774534915 0.00018179896455448457 0 0.031254017199937346 -9.6307196910918924e-05 0 0.030996928124035442 3.7503095466750789e-06 0 0.030946213817720482 -0.0002790808912469203 0 0.032758204161780165 -0.00020342263944601958 0 0.031293187774534915 0.00018179896455448457 0 0.031254017199937346 -9.6307196910918924e-05 0 0.031565616859946473 6.8953120155606563e-05 0 0.033276411241457693 -0.00072038946809949243 0 0.033213152612188455 -0.0011433274700210318 0 0.033651521062625644 -0.00078302970230531229 0 0.032758204161780165 -0.00020342263944601958 0 0.030034623167479828 -0.0010547861287719695 0 0.030925654402739384 -0.00022056031994826397 0 0.030950151183759895 -0.0002101301994136983 0 0.030935412038839909 -0.00022987692871456221 0 0.034836961003672638 -0.00020993450465832319 0 0.034920552336847308 -0.00010602718603307643 0 0.034923834970419697 -0.00026393841562147324 0 0.034920552336847308 -0.00010602718603307643 0 0.035003146287026006 -0.00012269059472561869 0 0.034923834970419697 -0.00026393841562147324 0 0.031100833110126975 0.00041462011135013748 0 0.030996928124035442 3.7503095466750789e-06 0 0.030801756453819863 5.3384707551506049e-05 0 0.033003514186677414 0.00011781656364257049 0 0.033133993296463701 -1.1025844849038937e-05 0 0.030996928124035442 3.7503095466750789e-06 0 0.030801756453819863 5.3384707551506049e-05 0 0.030786762037188407 -0.00015015276096335512 0 0.031254017199937346 -9.6307196910918924e-05 0 0.030996928124035442 3.7503095466750789e-06 0 0.030934144989868979 -0.00020175588191221754 0 0.030801756453819863 5.3384707551506049e-05 0 0.030786762037188407 -0.00015015276096335512 0 0.030647835760476038 -0.00017030394951116155 0 0.033133993296463701 -1.1025844849038937e-05 0 0.031015001952062866 -0.0002302358909039523 0 0.030786762037188407 -0.00015015276096335512 0 0.030804852818363416 -0.00029917628356726657 0 0.030647835760476038 -0.00017030394951116155 0 0.030786762037188407 -0.00015015276096335512 0 0.030934144989868979 -0.00020175588191221754 0 0.030804852818363416 -0.00029917628356726657 0 0.030996928124035442 3.7503095466750789e-06 0 0.030786762037188407 -0.00015015276096335512 0 0.030934144989868979 -0.00020175588191221754 0 0.030934144989868979 -0.00020175588191221754 0 0.030880779486589027 -0.00028162067025126725 0 0.030804852818363416 -0.00029917628356726657 0 0.028515105543803886 -0.00072009274072789924 0 0.031015001952062866 -0.0002302358909039523 0 0.026854082891744051 -0.0011669476347751602 0 0.027134001028958091 -0.0014445707846322574 0 0.027073216070979459 -0.0012085558016249845 0 0.026854082891744051 -0.0011669476347751602 0 0.026924809477488074 -0.0010102715874449057 0 0.027073216070979459 -0.0012085558016249845 0 0.030034623167479828 -0.0010547861287719695 0 0.029934803009138464 -0.00063652308773112342 0 0.030034623167479828 -0.0010547861287719695 0 0.028405078016651521 -0.00023377940827455646 0 0.030934144989868979 -0.00020175588191221754 0 0.030880779486589027 -0.00028162067025126725 0 0.030919034035877695 -0.00023368559135436849 0 0.030935412038839909 -0.00022987692871456221 0 0.030919034035877695 -0.00023368559135436849 0 0.030912720343838095 -0.00027205765711829562 0 0.030925654402739384 -0.00022056031994826397 0 0.030935412038839909 -0.00022987692871456221 0 0.030919034035877695 -0.00023368559135436849 0 0.030925654402739384 -0.00022056031994826397 0 0.030934144989868979 -0.00020175588191221754 0 0.030919034035877695 -0.00023368559135436849 0 0.030946213817720482 -0.0002790808912469203 0 0.031015853670636338 -0.00017128211832716564 0 0.030880779486589027 -0.00028162067025126725 0 0.030919034035877695 -0.00023368559135436849 0 0.030912720343838095 -0.00027205765711829562 0 0.026075962248570953 -0.00032246630604425199 0 0.026054063872872613 -0.00046389283138505611 0 0.026134954716320186 -0.00038919587483974015 0 0.026054063872872613 -0.00046389283138505611 0 0.026134954716320186 -0.00038919587483974015 0 0.02613568583225917 -0.00050003991530758231 0 0.028405078016651521 -0.00023377940827455646 0 0.028494082474631456 -0.00047719478670018764 0 0.026054063872872613 -0.00046389283138505611 0 0.026097424479092721 -0.00057910831569671253 0 0.02613568583225917 -0.00050003991530758231 0 0.026054063872872613 -0.00046389283138505611 0 0.026097424479092721 -0.00057910831569671253 0 0.026086171209792858 -0.00058824834887015193 0 0.030880779486589027 -0.00028162067025126725 0 0.030912720343838095 -0.00027205765711829562 0 0.030871364821032865 -0.00031976463972941538 0 0.030880779486589027 -0.00028162067025126725 0 0.030871364821032865 -0.00031976463972941538 0 0.030852261360092361 -0.00032239736253441344 0 0.026581282219997279 -0.00089809872375816381 0 0.026602108342214142 -0.00057755159972655535 0 0.026284920973626339 -0.00061000292398149549 0 0.028494082474631456 -0.00047719478670018764 0 0.028411983455691979 -0.00039098262543799274 0 0.030871364821032865 -0.00031976463972941538 0 0.030852261360092361 -0.00032239736253441344 0 0.030838877823487945 -0.00033542648423630296 0 0.028787422107593087 -0.00064615334320332969 0 0.028411983455691979 -0.00039098262543799274 0 0.026086171209792858 -0.00058824834887015193 0 0.026112937612336466 -0.00060046808754430205 0 0.026210956183783597 -0.00058317423983989653 0 0.026097424479092721 -0.00057910831569671253 0 0.026086171209792858 -0.00058824834887015193 0 0.026112937612336466 -0.00060046808754430205 0 0.026112937612336466 -0.00060046808754430205 0 0.026070819276323758 -0.00060878101581184768 0 0.026088995125827526 -0.00058415878191020497 0 0.026097424479092721 -0.00057910831569671253 0 0.026112937612336466 -0.00060046808754430205 0 0.026070819276323758 -0.00060878101581184768 0 0.026854082891744051 -0.0011669476347751602 0 0.026924809477488074 -0.0010102715874449057 0 0.026581282219997279 -0.00089809872375816381 0 0.026924809477488074 -0.0010102715874449057 0 0.026581282219997279 -0.00089809872375816381 0 0.026924836696937165 -0.00079949528881211312 0 0.028515105543803886 -0.00072009274072789924 0 0.028787422107593087 -0.00064615334320332969 0 0.030880779486589027 -0.00028162067025126725 0 0.030804852818363416 -0.00029917628356726657 0 0.030852261360092361 -0.00032239736253441344 0 0.026581282219997279 -0.00089809872375816381 0 0.026924836696937165 -0.00079949528881211312 0 0.026602108342214142 -0.00057755159972655535 0 0.026924836696937165 -0.00079949528881211312 0 0.027152275452369604 -0.00068944385844873601 0 0.027181535372740224 -0.00097798808467144081 0 0.026924809477488074 -0.0010102715874449057 0 0.027181535372740224 -0.00097798808467144081 0 0.027073216070979459 -0.0012085558016249845 0 0.026924809477488074 -0.0010102715874449057 0 0.026924836696937165 -0.00079949528881211312 0 0.027181535372740224 -0.00097798808467144081 0 0.026797656077175058 -0.00049234446854275996 0 0.028433692268123537 -0.00047220927026050155 0 0.027181535372740224 -0.00097798808467144081 0 0.027363394308462002 -0.00078561764189834238 0 0.0274604555162496 -0.0010649306675831797 0 0.027181535372740224 -0.00097798808467144081 0 0.0274604555162496 -0.0010649306675831797 0 0.027301699942319048 -0.0012229647551127124 0 0.027152275452369604 -0.00068944385844873601 0 0.027181535372740224 -0.00097798808467144081 0 0.027363394308462002 -0.00078561764189834238 0 0.0264505739569149 -0.00021304951602372485 0 0.026684422074216903 -0.00013886442625617561 0 0.0265878649078631 0.00015110379157138305 0 0.0264505739569149 -0.00021304951602372485 0 0.026684422074216903 -0.00013886442625617561 0 0.026752626664294808 -0.00034208785403373531 0 0.0274497508134178 -0.00055474937628202279 0 0.026915665482443157 -2.4120268857680259e-06 0 0.029053863534539311 -0.00033178068430975773 0 0.026684422074216903 -0.00013886442625617561 0 0.026946300083166525 -0.00014922787188100642 0 0.026752626664294808 -0.00034208785403373531 0 0.026281172369286451 1.0004665979268761e-11 0 0.026616521564350914 -2.1568923412694517e-08 0 0.026911524536453693 4.6337767627301997e-11 0 0.026690683158314583 -0.00010570286416855393 0 0.026912386962470971 -2.8271158307536639e-07 0 0.026280491611938114 -3.1603542749783535e-07 0 0.026690683158314583 -0.00010570286416855393 0 0.026690683158314583 -0.00010570286416855393 0 0.027954541859709484 -0.00024915637752912775 0 0.026915665482443157 -2.4120268857680259e-06 0 0.029326699120912073 -3.0859006252780944e-05 0 0.028898107044582726 1.009096010560525e-06 0 0.026915665482443157 -2.4120268857680259e-06 0 0.029326699120912073 -3.0859006252780944e-05 0 0.029053863534539311 -0.00033178068430975773 0 0.0264505739569149 -0.00021304951602372485 0 0.026752626664294808 -0.00034208785403373531 0 0.02656648058859 -0.0005324992868874105 0 0.029326699120912073 -3.0859006252780944e-05 0 0.029053863534539311 -0.00033178068430975773 0 0.030107030113858724 -0.00016800829361550412 0 0.027954541859709484 -0.00024915637752912775 0 0.028433692268123537 -0.00047220927026050155 0 0.031525870542580416 1.2356403005762051e-07 0 0.028898107044582726 1.009096010560525e-06 0 0.030242819845530722 0.00019960110830271992 0 0.028433692268123537 -0.00047220927026050155 0 0.029334112451883755 -0.00030591976269455723 0 0.029326699120912073 -3.0859006252780944e-05 0 0.030247169977803991 3.1201649727166046e-05 0 0.030242819845530722 0.00019960110830271992 0 0.029326699120912073 -3.0859006252780944e-05 0 0.030107030113858724 -0.00016800829361550412 0 0.030247169977803991 3.1201649727166046e-05 0 0.030247169977803991 3.1201649727166046e-05 0 0.030689989108542863 0.00024520368775462711 0 0.030242819845530722 0.00019960110830271992 0 0.029326699120912073 -3.0859006252780944e-05 0 0.028898107044582726 1.009096010560525e-06 0 0.030242819845530722 0.00019960110830271992 0 0.031159440811267394 0.00023433042996198676 0 0.030689989108542863 0.00024520368775462711 0 0.030242819845530722 0.00019960110830271992 0 0.031159440811267394 0.00023433042996198676 0 0.030689989108542863 0.00024520368775462711 0 0.031011217290759799 0.00030533881497817592 0 0.030689989108542863 0.00024520368775462711 0 0.031011217290759799 0.00030533881497817592 0 0.030893860943501675 0.00010755197837914048 0 0.031011217290759799 0.00030533881497817592 0 0.031043642328953843 0.00023884812860807243 0 0.030893860943501675 0.00010755197837914048 0 0.031809419691613453 -0.0013787494155886445 0 0.03079472936587916 -0.00012231386433242533 0 0.031148059905156542 0.00022349154772428721 0 0.033155107994427176 -0.00079784614498436257 0 0.029395772942674366 -0.00057415716964435125 0 0.031016819898235851 0.00026642029321404242 0 0.031011217290759799 0.00030533881497817592 0 0.031043642328953843 0.00023884812860807243 0 0.027134001028958091 -0.0014445707846322574 0 0.027182869827512807 -0.0013949811800617216 0 0.027073216070979459 -0.0012085558016249845 0 0.031015001952062866 -0.0002302358909039523 0 0.029395772942674366 -0.00057415716964435125 0 0.029395772942674366 -0.00057415716964435125 0 0.029082414765264259 -0.00056217844388696742 0 0.027181535372740224 -0.00097798808467144081 0 0.027073216070979459 -0.0012085558016249845 0 0.027301699942319048 -0.0012229647551127124 0 0.027156790696936429 -0.0013672729821211801 0 0.027073216070979459 -0.0012085558016249845 0 0.027301699942319048 -0.0012229647551127124 0 0.029395772942674366 -0.00057415716964435125 0 0.027361439978967936 -0.0011044022605061767 0 0.028433692268123537 -0.00047220927026050155 0 0.029082414765264259 -0.00056217844388696742 0 0.030346644307375978 -0.00032746436727621966 0 0.030247169977803991 3.1201649727166046e-05 0 0.030893860943501675 0.00010755197837914048 0 0.030247169977803991 3.1201649727166046e-05 0 0.030689989108542863 0.00024520368775462711 0 0.030893860943501675 0.00010755197837914048 0 0.034960510825732247 0.00011126520149601569 0 0.034976210725932863 6.2391876039038003e-05 0 0.034928013382404852 0.0001745632101944126 0 0.034960510825732247 0.00011126520149601569 0 0.034984796007654397 6.1135087620431557e-05 0 0.034973766178448149 9.2564269236274432e-05 0 0.032988237440858541 0.0001298464033160887 0 0.031575714027915307 -6.0546825604564653e-05 0 0.034960510825732247 0.00011126520149601569 0 0.034984796007654397 6.1135087620431557e-05 0 0.034976210725932863 6.2391876039038003e-05 0 0.034976210725932863 6.2391876039038003e-05 0 0.034999972080512164 3.4102784872170498e-08 0 0.034991564220282927 2.9815138749995243e-05 0 0.034999972080512164 3.4102784872170498e-08 0 0.034991564220282927 2.9815138749995243e-05 0 0.034999987111585834 1.9266310837286511e-08 0 0.034984796007654397 6.1135087620431557e-05 0 0.034976210725932863 6.2391876039038003e-05 0 0.034991564220282927 2.9815138749995243e-05 0 0.034984796007654397 6.1135087620431557e-05 0 0.034991564220282927 2.9815138749995243e-05 0 0.035001383594615576 2.1935222967211669e-05 0 0.034984796007654397 6.