<?xml version="1.0"?>
<VTKFile type="UnstructuredGrid" version="0.1" byte_order="LittleEndian">
<UnstructuredGrid>
<Piece NumberOfPoints="31898" NumberOfCells="11152">
<Points>
<DataArray type="Float64" NumberOfComponents="3" format="ascii">
-0.5 -0.5 0 -0.47620991077874902 -0.44978878706170539 0 -0.49999999999999473 -0.42132396840504388 0 -0.5 -0.5 0 -0.47160970827802529 -0.4793630013852106 0 -0.47620991077874902 -0.44978878706170539 0 -0.5 -0.5 0 -0.47160970827802529 -0.4793630013852106 0 -0.44860394795025399 -0.5 0 -0.47160970827802529 -0.4793630013852106 0 -0.44860394795025399 -0.5 0 -0.4490820238307246 -0.45820516232899983 0 -0.44860394795025399 -0.5 0 -0.4490820238307246 -0.45820516232899983 0 -0.42881687682924802 -0.47781464288736519 0 -0.4490820238307246 -0.45820516232899983 0 -0.45555437223955858 -0.42914059360647611 0 -0.4490820238307246 -0.45820516232899983 0 -0.45555437223955858 -0.42914059360647611 0 -0.43867285131603428 -0.4271457417558665 0 -0.4490820238307246 -0.45820516232899983 0 -0.43867285131603428 -0.4271457417558665 0 -0.4263356171060747 -0.44269880333887462 0 -0.47160970827802529 -0.4793630013852106 0 -0.4490820238307246 -0.45820516232899983 0 -0.47620991077874902 -0.44978878706170539 0 -0.4490820238307246 -0.45820516232899983 0 -0.47620991077874902 -0.44978878706170539 0 -0.45555437223955858 -0.42914059360647611 0 -0.47620991077874902 -0.44978878706170539 0 -0.48101336032419229 -0.41069999664450008 0 -0.45555437223955858 -0.42914059360647611 0 -0.47620991077874902 -0.44978878706170539 0 -0.49999999999999473 -0.42132396840504388 0 -0.48101336032419229 -0.41069999664450008 0 -0.49999999999999473 -0.42132396840504388 0 -0.48101336032419229 -0.41069999664450008 0 -0.5 -0.393886241813306 0 -0.49999999999999473 -0.42132396840504388 0 -0.48101336032419229 -0.41069999664450008 0 -0.5 -0.393886241813306 0 -0.47854472220918332 -0.38978458738689759 0 -0.48422759779560409 -0.37130120630367158 0 -0.5 -0.393886241813306 0 -0.5 -0.36644851522156802 0 -0.48422759779560409 -0.37130120630367158 0 -0.48101336032419229 -0.41069999664450008 0 -0.5 -0.393886241813306 0 -0.47854472220918332 -0.38978458738689759 0 -0.48101336032419229 -0.41069999664450008 0 -0.47854472220918332 -0.38978458738689759 0 -0.46202672064839212 -0.40007602488395211 0 -0.48101336032419229 -0.41069999664450008 0 -0.46202672064839212 -0.40007602488395211 0 -0.47854472220918332 -0.38978458738689759 0 -0.46725442735267431 -0.37660061361585562 0 -0.46202672064839212 -0.40007602488395211 0 -0.47854472220918332 -0.38978458738689759 0 -0.46725442735267431 -0.37660061361585562 0 -0.48422759779560409 -0.37130120630367158 0 -0.46725442735267431 -0.37660061361585562 0 -0.46202672064839212 -0.40007602488395211 0 -0.46725442735267431 -0.37660061361585562 0 -0.45645674801697989 -0.38644133236760531 0 -0.46202672064839212 -0.40007602488395211 0 -0.46725442735267431 -0.37660061361585562 0 -0.45645674801697989 -0.38644133236760531 0 -0.4540003998136638 -0.37455519391687309 0 -0.45645674801697989 -0.38644133236760531 0 -0.46202672064839212 -0.40007602488395211 0 -0.44257020456291563 -0.38918913383950271 0 -0.46202672064839212 -0.40007602488395211 0 -0.44257020456291563 -0.38918913383950271 0 -0.44727608925983742 -0.41095911152778891 0 -0.46202672064839212 -0.40007602488395211 0 -0.44257020456291563 -0.38918913383950271 0 -0.44257020456291563 -0.38918913383950271 0 -0.44727608925983742 -0.41095911152778891 0 -0.43479358559901082 -0.4041454901736512 0 -0.44257020456291563 -0.38918913383950271 0 -0.4540003998136638 -0.37455519391687309 0 -0.44172858264042247 -0.37082207246888088 0 -0.45645674801697989 -0.38644133236760531 0 -0.44257020456291563 -0.38918913383950271 0 -0.4540003998136638 -0.37455519391687309 0 -0.46202672064839212 -0.40007602488395211 0 -0.45555437223955858 -0.42914059360647611 0 -0.44727608925983742 -0.41095911152778891 0 -0.46202672064839212 -0.40007602488395211 0 -0.45555437223955858 -0.42914059360647611 0 -0.48101336032419229 -0.41069999664450008 0 -0.46202672064839212 -0.40007602488395211 0 -0.45555437223955858 -0.42914059360647611 0 -0.44727608925983742 -0.41095911152778891 0 -0.43867285131603428 -0.4271457417558665 0 -0.43676601469929588 -0.41441201227470881 0 -0.44727608925983742 -0.41095911152778891 0 -0.43676601469929588 -0.41441201227470881 0 -0.43479358559901082 -0.4041454901736512 0 -0.45555437223955858 -0.42914059360647611 0 -0.44727608925983742 -0.41095911152778891 0 -0.43867285131603428 -0.4271457417558665 0 -0.43867285131603428 -0.4271457417558665 0 -0.42681803064840879 -0.42717069814352421 0 -0.4263356171060747 -0.44269880333887462 0 -0.42681803064840879 -0.42717069814352421 0 -0.41531815884496182 -0.42985383783075998 0 -0.4263356171060747 -0.44269880333887462 0 -0.42681803064840879 -0.42717069814352421 0 -0.42624289495594048 -0.42089725947505818 0 -0.42083332353326591 -0.42146747131641099 0 -0.42681803064840879 -0.42717069814352421 0 -0.43096994786351572 -0.41951492446283251 0 -0.42624289495594048 -0.42089725947505818 0 -0.43867285131603428 -0.4271457417558665 0 -0.42681803064840879 -0.42717069814352421 0 -0.43096994786351572 -0.41951492446283251 0 -0.43867285131603428 -0.4271457417558665 0 -0.43676601469929588 -0.41441201227470881 0 -0.43096994786351572 -0.41951492446283251 0 -0.43676601469929588 -0.41441201227470881 0 -0.43096994786351572 -0.41951492446283251 0 -0.42907264086257813 -0.41311715872526122 0 -0.43676601469929588 -0.41441201227470881 0 -0.42907264086257813 -0.41311715872526122 0 -0.43479358559901082 -0.4041454901736512 0 -0.42907264086257813 -0.41311715872526122 0 -0.43479358559901082 -0.4041454901736512 0 -0.42460885511582858 -0.40417321677700252 0 -0.42907264086257813 -0.41311715872526122 0 -0.41997834854398469 -0.41180534796019508 0 -0.42907264086257813 -0.41311715872526122 0 -0.42635027777857132 -0.41543594397746519 0 -0.41997834854398469 -0.41180534796019508 0 -0.42907264086257813 -0.41311715872526122 0 -0.41997834854398469 -0.41180534796019508 0 -0.42460885511582858 -0.40417321677700252 0 -0.42635027777857132 -0.41543594397746519 0 -0.41997834854398469 -0.41180534796019508 0 -0.42635027777857132 -0.41543594397746519 0 -0.42083332353326591 -0.42146747131641099 0 -0.41997834854398469 -0.41180534796019508 0 -0.43096994786351572 -0.41951492446283251 0 -0.42624289495594048 -0.42089725947505818 0 -0.42635027777857132 -0.41543594397746519 0 -0.43096994786351572 -0.41951492446283251 0 -0.42907264086257813 -0.41311715872526122 0 -0.42635027777857132 -0.41543594397746519 0 -0.42624289495594048 -0.42089725947505818 0 -0.42635027777857132 -0.41543594397746519 0 -0.42083332353326591 -0.42146747131641099 0 -0.42083332353326591 -0.42146747131641099 0 -0.41997834854398469 -0.41180534796019508 0 -0.40992282953163789 -0.42011435591993562 0 -0.41997834854398469 -0.41180534796019508 0 -0.39756877647335259 -0.40857286797681719 0 -0.41997834854398469 -0.41180534796019508 0 -0.40992282953163789 -0.42011435591993562 0 -0.39756877647335259 -0.40857286797681719 0 -0.40992282953163789 -0.42011435591993562 0 -0.41531815884496182 -0.42985383783075998 0 -0.39591554026262499 -0.42887225451549271 0 -0.41531815884496182 -0.42985383783075998 0 -0.39591554026262499 -0.42887225451549271 0 -0.41160927495564159 -0.44339431233754628 0 -0.42083332353326591 -0.42146747131641099 0 -0.40992282953163789 -0.42011435591993562 0 -0.41531815884496182 -0.42985383783075998 0 -0.42681803064840879 -0.42717069814352421 0 -0.42083332353326591 -0.42146747131641099 0 -0.41531815884496182 -0.42985383783075998 0 -0.44257020456291563 -0.38918913383950271 0 -0.42311368847744002 -0.37830224279505142 0 -0.42594061475171041 -0.39368797999533162 0 -0.44257020456291563 -0.38918913383950271 0 -0.42311368847744002 -0.37830224279505142 0 -0.44172858264042247 -0.37082207246888088 0 -0.44257020456291563 -0.38918913383950271 0 -0.42311368847744002 -0.37830224279505142 0 -0.42311368847744002 -0.37830224279505142 0 -0.42594061475171041 -0.39368797999533162 0 -0.416587075656149 -0.38785930376960043 0 -0.44257020456291563 -0.38918913383950271 0 -0.42594061475171041 -0.39368797999533162 0 -0.43479358559901082 -0.4041454901736512 0 -0.42594061475171041 -0.39368797999533162 0 -0.43479358559901082 -0.4041454901736512 0 -0.42460885511582858 -0.40417321677700252 0 -0.41997834854398469 -0.41180534796019508 0 -0.41325908582185972 -0.39811010703057192 0 -0.39770572831670092 -0.39911486077581648 0 -0.41997834854398469 -0.41180534796019508 0 -0.39770572831670092 -0.39911486077581648 0 -0.42594061475171041 -0.39368797999533162 0 -0.42460885511582858 -0.40417321677700252 0 -0.41325908582185972 -0.39811010703057192 0 -0.41997834854398469 -0.41180534796019508 0 -0.42460885511582858 -0.40417321677700252 0 -0.41325908582185972 -0.39811010703057192 0 -0.42594061475171041 -0.39368797999533162 0 -0.41325908582185972 -0.39811010703057192 0 -0.416587075656149 -0.38785930376960043 0 -0.41325908582185972 -0.39811010703057192 0 -0.416587075656149 -0.38785930376960043 0 -0.40403491357358612 -0.38133688525744702 0 -0.42311368847744002 -0.37830224279505142 0 -0.40403491357358612 -0.38133688525744702 0 -0.40365717239196519 -0.36741535175059892 0 -0.42311368847744002 -0.37830224279505142 0 -0.416587075656149 -0.38785930376960043 0 -0.40403491357358612 -0.38133688525744702 0 -0.40403491357358612 -0.38133688525744702 0 -0.39190790742475001 -0.38540387676521748 0 -0.39770572831670092 -0.39911486077581648 0 -0.40403491357358612 -0.38133688525744702 0 -0.39190790742475001 -0.38540387676521748 0 -0.3904578797192948 -0.37473938743617019 0 -0.41325908582185972 -0.39811010703057192 0 -0.40403491357358612 -0.38133688525744702 0 -0.39770572831670092 -0.39911486077581648 0 -0.39770572831670092 -0.39911486077581648 0 -0.37543310808941849 -0.38642437359143528 0 -0.39770572831670092 -0.39911486077581648 0 -0.37515920440272033 -0.40534038799344108 0 -0.37543310808941849 -0.38642437359143528 0 -0.39770572831670092 -0.39911486077581648 0 -0.37515920440272033 -0.40534038799344108 0 -0.39756877647335259 -0.40857286797681719
[...]
<PointData Scalars="" Vectors="displacement," Tensors="">
<DataArray type="Float64" Name="displacement" NumberOfComponents="3" format="ascii">
0.064995310911737353 0.06499633989150852 0 0.060598210336714399 0.063841239987838416 0 0.054791796689985642 0.064991339044456642 0 0.064995310911737353 0.06499633989150852 0 0.063963237620423261 0.062629853568226895 0 0.060598210336714399 0.063841239987838416 0 0.064995310911737353 0.06499633989150852 0 0.063963237620423261 0.062629853568226895 0 0.064996358610994093 0.058324127443406343 0 0.063963237620423261 0.062629853568226895 0 0.064996358610994093 0.058324127443406343 0 0.064357412187669674 0.061725424333891533 0 0.064996358610994093 0.058324127443406343 0 0.064357412187669674 0.061725424333891533 0 0.065206983036965427 0.057125773683145233 0 0.063055421585890795 0.063466371296991245 0 0.062807812137049085 0.063978492200981577 0 0.064357412187669674 0.061725424333891533 0 0.069929534634670026 0.062291028221060488 0 0.070365092032597401 0.059513060679021464 0 0.064357412187669674 0.061725424333891533 0 0.070365092032597401 0.059513060679021464 0 0.068029251841637065 0.057375478891472001 0 0.063963237620423261 0.062629853568226895 0 0.064357412187669674 0.061725424333891533 0 0.060598210336714399 0.063841239987838416 0 0.064357412187669674 0.061725424333891533 0 0.060598210336714399 0.063841239987838416 0 0.059140090846997034 0.064961865167718499 0 0.060598210336714399 0.063841239987838416 0 0.056396012973522903 0.064305745450718627 0 0.059140090846997034 0.064961865167718499 0 0.060598210336714399 0.063841239987838416 0 0.054791796689985642 0.064991339044456642 0 0.056396012973522903 0.064305745450718627 0 0.054772098597496467 0.064999992366043161 0 0.053389281164760653 0.067451781125553806 0 0.051205220440726611 0.064999989521075732 0 0.05477403187691305 0.065000835440605587 0 0.05566028155183899 0.065320713269506697 0 0.051205220440726611 0.064999989521075732 0 0.050677007023744176 0.067770022388994253 0 0.048273359998744478 0.067036962482689699 0 0.051205220440726611 0.064999989521075732 0 0.047638312178020656 0.06499998765564112 0 0.048273359998744478 0.067036962482689699 0 0.053389281164760653 0.067451781125553806 0 0.051205220440726611 0.064999989521075732 0 0.050677007023744176 0.067770022388994253 0 0.053389281164760653 0.067451781125553806 0 0.050677007023744176 0.067770022388994253 0 0.052017377494248854 0.069897250911995001 0 0.05566028155183899 0.065320713269506697 0 0.057572737181541996 0.064192896390146068 0 0.050677007023744176 0.067770022388994253 0 0.048966367377170097 0.069229854366185492 0 0.052017377494248854 0.069897250911995001 0 0.050677007023744176 0.067770022388994253 0 0.048966367377170097 0.069229854366185492 0 0.048273359998744478 0.067036962482689699 0 0.049360982032213251 0.065837047263546319 0 0.057572737181541996 0.064192896390146068 0 0.04527547451101558 0.068697342553399043 0 0.045151938274724489 0.068657644259828884 0 0.045067361820211024 0.068697922199661726 0 0.04527547451101558 0.068697342553399043 0 0.045151938274724489 0.068657644259828884 0 0.045170711302632921 0.068681401183427346 0 0.045151938274724489 0.068657644259828884 0 0.045067361820211024 0.068697922199661726 0 0.045088008065594855 0.068552864163819532 0 0.073835558764844378 0.06260650825573888 0 0.074945280658488461 0.060005889002646459 0 0.072477304328910863 0.060749413623530452 0 0.057572737181541996 0.064192896390146068 0 0.058122349107555982 0.063104390054220055 0 0.074945280658488461 0.060005889002646459 0 0.072477304328910863 0.060749413623530452 0 0.073272599493955176 0.059082966660689774 0 0.045088008065594855 0.068552864163819532 0 0.045170711302632921 0.068681401183427346 0 0.045173947789119699 0.068547674447027584 0 0.045151938274724489 0.068657644259828884 0 0.045088008065594855 0.068552864163819532 0 0.045170711302632921 0.068681401183427346 0 0.073835558764844378 0.06260650825573888 0 0.069929534634670026 0.062291028221060488 0 0.072477304328910863 0.060749413623530452 0 0.057572737181541996 0.064192896390146068 0 0.062807812137049085 0.063978492200981577 0 0.056396012973522903 0.064305745450718627 0 0.056112945281045351 0.065277485254155096 0 0.059140090846997034 0.064961865167718499 0 0.072477304328910863 0.060749413623530452 0 0.070365092032597401 0.059513060679021464 0 0.072070224190244267 0.059295770731995989 0 0.072477304328910863 0.060749413623530452 0 0.072070224190244267 0.059295770731995989 0 0.073272599493955176 0.059082966660689774 0 0.069929534634670026 0.062291028221060488 0 0.072477304328910863 0.060749413623530452 0 0.070365092032597401 0.059513060679021464 0 0.070365092032597401 0.059513060679021464 0 0.070304462149628433 0.057686972051501688 0 0.068029251841637065 0.057375478891472001 0 0.070304462149628433 0.057686972051501688 0 0.069906090733127604 0.055973930838552302 0 0.068029251841637065 0.057375478891472001 0 0.070304462149628433 0.057686972051501688 0 0.071195758295136774 0.057681208890433398 0 0.071104629511289222 0.056840409518037691 0 0.070304462149628433 0.057686972051501688 0 0.071400974652937807 0.058433967136032439 0 0.071195758295136774 0.057681208890433398 0 0.070365092032597401 0.059513060679021464 0 0.070304462149628433 0.057686972051501688 0 0.071400974652937807 0.058433967136032439 0 0.070365092032597401 0.059513060679021464 0 0.072070224190244267 0.059295770731995989 0 0.071400974652937807 0.058433967136032439 0 0.072070224190244267 0.059295770731995989 0 0.071400974652937807 0.058433967136032439 0 0.072323713082135338 0.058286570043734338 0 0.072070224190244267 0.059295770731995989 0 0.072323713082135338 0.058286570043734338 0 0.073272599493955176 0.059082966660689774 0 0.072323713082135338 0.058286570043734338 0 0.073272599493955176 0.059082966660689774 0 0.073254538474849584 0.057969844631740639 0 0.069956527381882599 0.054465445631235461 0 0.069919412398068884 0.054024304872166362 0 0.072323713082135338 0.058286570043734338 0 0.071974664438962402 0.057765712214801708 0 0.072643293986013255 0.056616049384810768 0 0.072323713082135338 0.058286570043734338 0 0.072544146925208164 0.057516395204983035 0 0.073254538474849584 0.057969844631740639 0 0.069911606318294503 0.054193675975161053 0 0.069919412398068884 0.054024304872166362 0 0.071974664438962402 0.057765712214801708 0 0.071104629511289222 0.056840409518037691 0 0.072529863763946809 0.056715749711400282 0 0.071400974652937807 0.058433967136032439 0 0.071195758295136774 0.057681208890433398 0 0.071974664438962402 0.057765712214801708 0 0.071400974652937807 0.058433967136032439 0 0.072323713082135338 0.058286570043734338 0 0.071974664438962402 0.057765712214801708 0 0.071195758295136774 0.057681208890433398 0 0.071974664438962402 0.057765712214801708 0 0.071104629511289222 0.056840409518037691 0 0.071104629511289222 0.056840409518037691 0 0.072529863763946809 0.056715749711400282 0 0.071302375731904191 0.055231706558735154 0 0.069919412398068884 0.054024304872166362 0 0.070356581642363664 0.051693972443565439 0 0.072529863763946809 0.056715749711400282 0 0.071302375731904191 0.055231706558735154 0 0.072933523948696108 0.053466714540923936 0 0.071302375731904191 0.055231706558735154 0 0.069906090733127604 0.055973930838552302 0 0.070072180219719768 0.053241721008584514 0 0.069906090733127604 0.055973930838552302 0 0.070072180219719768 0.053241721008584514 0 0.068059493400448048 0.05541887093954076 0 0.071104629511289222 0.056840409518037691 0 0.071302375731904191 0.055231706558735154 0 0.069906090733127604 0.055973930838552302 0 0.070304462149628433 0.057686972051501688 0 0.071104629511289222 0.056840409518037691 0 0.069906090733127604 0.055973930838552302 0 0.074945280658488461 0.060005889002646459 0 0.075680019772135218 0.057865179083072302 0 0.074300679260614219 0.05814988916774997 0 0.045088008065594855 0.068552864163819532 0 0.045104343210542693 0.068309012537283581 0 0.045173947789119699 0.068547674447027584 0 0.058122349107555982 0.063104390054220055 0 0.058080458616466428 0.061142003913410514 0 0.075680019772135218 0.057865179083072302 0 0.074300679260614219 0.05814988916774997 0 0.074770154452042367 0.057257912996883015 0 0.074945280658488461 0.060005889002646459 0 0.074300679260614219 0.05814988916774997 0 0.073272599493955176 0.059082966660689774 0 0.074300679260614219 0.05814988916774997 0 0.073272599493955176 0.059082966660689774 0 0.073254538474849584 0.057969844631740639 0 0.072544146925208164 0.057516395204983035 0 0.073843439553955503 0.056937904518814753 0 0.073797294763815302 0.055604082252306397 0 0.069919412398068884 0.054024304872166362 0 0.069503676022007022 0.051790330421293294 0 0.074300679260614219 0.05814988916774997 0 0.073254538474849584 0.057969844631740639 0 0.073843439553955503 0.056937904518814753 0 0.072544146925208164 0.057516395204983035 0 0.073254538474849584 0.057969844631740639 0 0.073843439553955503 0.056937904518814753 0 0.074300679260614219 0.05814988916774997 0 0.073843439553955503 0.056937904518814753 0 0.074770154452042367 0.057257912996883015 0 0.073843439553955503 0.056937904518814753 0 0.074770154452042367 0.057257912996883015 0 0.075247399101654205 0.056107666633677701 0 0.075680019772135218 0.057865179083072302 0 0.075247399101654205 0.056107666633677701 0 0.076500176052306551 0.056078478143281554 0 0.075680019772135218 0.057865179083072302 0 0.074770154452042367 0.057257912996883015 0 0.075247399101654205 0.056107666633677701 0 0.075247399101654205 0.056107666633677701 0 0.074869141210692755 0.055202692889616149 0 0.073797294763815302 0.055604082252306397 0 0.075247399101654205 0.056107666633677701 0 0.074869141210692755 0.055202692889616149 0 0.075615231776416644 0.055111181075556556 0 0.073843439553955503 0.056937904518814753 0 0.075247399101654205 0.056107666633677701 0 0.073797294763815302 0.055604082252306397 0 0.069503676022007022 0.051790330421293294 0 0.067934125361033951 0.048307263923297344 0 0.070014795114625022 0.050927244123610708 0 0.069476901724064913 0.048979197957943504 0 0.071100908660060566 0.049001350304393808 0 0.070014795114625022 0.050927244123610708 0 0.069476901724064913 0.048979197957943504 0 0.06919961253096174 0.050916609216174059 0 0.070586801041388439 0.048398489638576708 0 0.067934125361033951 0.048307263923297344 0 0.074793459775945703 0.054029845910357581 0 0.075615231776416644 0.055111181075556556 0 0.075963077987108565 0.054096844381378843 0 0.074869141210692755 0.055202692889616149 0 0.074793459775945703 0.054029845910357581 0 0.075615231776416644 0.055111181075556556 0 0.067934125361033951 0.048307263923297344 0 0.064306008200640294 0.049519016743248885 0 0.074869141210692755 0.055202692889616149 0 0.073797294763815302 0.055604082252306397 0 0.074793459775945703 0.054029845910357581 0 0.068925260649670181 0.052862074945191934 0 0.070014795114625022 0.050927244123610708 0 0.06919961253096174 0.050916609216174059 0 0.071302375731904191 0.055231706558735154 0 0.070072180219719768 0.053241721008584514 0 0.072933523948696108 0.053466714540923936 0 0.073372746079746032 0.050326690058160858 0 0.070072180219719768 0.053241721008584514 0 0.072933523948696108 0.053466714540923936 0 0.070586801041388439 0.048398489638576708 0 0.070356581642363664 0.051693972443565439 0 0.073372746079746032 0.050326690058160858 0 0.070072180219719768 0.053241721008584514 0 0.069159778886422205 0.050285236934965984 0 0.070072180219719768 0.053241721008584514 0 0.06762242254126398 0.052831986215870576 0 0.069159778886422205 0.050285236934965984 0 0.06762242254126398 0.052831986215870576 0 0.064992564543308651 0.050231871814810362 0 0.069159778886422205 0.050285236934965984 0 0.070072180219719768 0.053241721008584514 0 0.06762242254126398 0.052831986215870576 0 0.068059493400448048 0.05541887093954076 0 0.06762242254126398 0.052831986215870576 0 0.066102878974128601 0.054348961259060989 0 0.068059493400448048 0.05541887093954076 0 0.066923087148596891 0.054467212799482252 0 0.066112542051851714 0.052323548526259492 0 0.066072707877664408 0.055025259078297174 0 0.070389235567102984 0.052393501032656775 0 0.069887651498457257 0.050534083842922281 0 0.067723358293732661 0.050960783150905187 0 0.06812679296901053 0.051701364085695554 0 0.066648112254635641 0.050819951449539345 0 0.06812679296901053 0.051701364085695554 0 0.068128361720010674 0.051727716393409673 0 0.06812679296901053 0.051701364085695554 0 0.068134876833981908 0.050643089740726017 0 0.06762242254126398 0.052831986215870576 0 0.066102878974128601 0.054348961259060989 0 0.065548233857646923 0.052289621006981091 0 0.06762242254126398 0.052831986215870576 0 0.065548233857646923 0.052289621006981091 0 0.064992564543308651 0.050231871814810362 0 0.068134876833981908 0.050643089740726017 0 0.068113574415735068 0.049026769232487964 0 0.069887651498457257 0.050534083842922281 0 0.068627352798162289 0.04986012871529661 0 0.069385549461647378 0.048660745878975072 0 0.068627352798162289 0.04986012871529661 0 0.067723358293732661 0.050960783150905187 0 0.067906757910230514 0.048630963841764262 0 0.067723358293732661 0.050960783150905187 0 0.066318112152553427 0.048410637877146535 0 0.067906757910230514 0.048630963841764262 0 0.068627352798162289 0.04986012871529661 0 0.067906757910230514 0.048630963841764262 0 0.069385549461647378 0.048660745878975072 0 0.069887651498457257 0.050534083842922281 0 0.068627352798162289 0.04986012871529661 0 0.067723358293732661 0.050960783150905187 0 0.065001228670455227 0.049524732835427548 0 0.066648112254635641 0.050819951449539345 0 0.065000006069712402 0.049523052218462496 0 0.067723358293732661 0.050960783150905187 0 0.066318112152553427 0.048410637877146535 0 0.064999784003739083 0.049525351171634924 0 0.066112542051851714 0.052323548526259492 0 0.064998387688350742 0.053298296403167626 0 0.066112542051851714 0.052323548526259492 0 0.066072707877664408 0.055025259078297174 0 0.064998387688350742 0.053298296403167626 0 0.066072707877664408 0.055025259078297174 0 0.064998387688350742 0.053298296403167626 0 0.065206983036965427 0.057125773683145233 0 0.064996358610994093 0.058324127443406343 0 0.064998387688350742 0.053298296403167626 0 0.065206983036965427 0.057125773683145233 0 0.066072707877664408 0.055025259078297174 0 0.065206983036965427 0.057125773683145233 0 0.065951758972404809 0.057276443261403853 0 0.064357412187669674 0.061725424333891533 0 0.065206983036965427 0.057125773683145233 0 0.065951758972404809 0.057276443261403853 0 0.064357412187669674 0.061725424333891533 0 0.065951758972404809 0.057276443261403853 0 0.068029251841637065 0.057375478891472001 0 0.065951758972404809 0.057276443261403853 0 0.068029251841637065 0.057375478891472001 0 0.066932415412354854 0.055917392100897363 0 0.068029251841637065 0.057375478891472001 0 0.068059493400448048 0.05541887093954076 0 0.066932415412354854 0.055917392100897363 0 0.069906090733127604 0.055973930838552302 0 0.068029251841637065 0.057375478891472001 0 0.068059493400448048 0.05541887093954076 0 0.066853567723924895 0.054480090026170228 0 0.068059493400448048 0.05541887093954076 0 0.066907889060291617 0.054736449996642914 0 0.068059493400448048 0.05541887093954076 0 0.066907889060291617 0.054736449996642914 0 0.066932415412354854 0.055917392100897363 0 0.06812679296901053 0.051701364085695554 0 0.068259947136853086 0.052131058558113688 0 0.066072707877664408 0.055025259078297174 0 0.066907889060291617 0.054736449996642914 0 0.066932415412354854 0.055917392100897363 0 0.066923087148596891 0.054467212799482252 0 0.066072707877664408 0.055025259078297174 0 0.066907889060291617 0.054736449996642914 0 0.066072707877664408 0.055025259078297174 0 0.065951758972404809 0.057276443261403853 0 0.066932415412354854 0.055917392100897363 0 0.0278246208515102 0.068166646159326119 0 0.024900302462287388 0.064589532751577763 0 0.032709265116318061 0.070163954570261061 0 0.032530681230335964 0.074082929468201608 0 0.030451356067829598 0.071091305794438231 0 0.035719182948455996 0.071092995179387428 0 0.033261845620592922 0.070278158405232674 0 0.033051771207955848 0.073049061662977088 0 0.035719182948455996 0.071092995179387428 0 0.035584816101869608 0.073502948354180225 0 0.033051771207955848 0.073049061662977088 0 0.035719182948455996 0.071092995179387428 0 0.037958133261358669 0.072135074714577349 0 0.035584816101869608 0.073502948354180225 0 0.035719182948455996 0.071092995179387428 0 0.034785092461829085 0.068956517636027739 0 0.036730495943063553 0.068714318216200623 0 0.035719182948455996 0.071092995179387428 0 0.034785092461829085 0.068956517636027739 0 0.033261845620592922 0.070278158405232674 0 0.0278246208515102 0.068166646159326119 0 0.028779930428519323 0.068019461163901326 0 0.034785092461829085 0.068956517636027739 0 0.033261845620592922 0.070278158405232674 0 0.033324120170497344 0.067377273862601686 0 0.032709265116318061 0.070163954570261061 0 0.033324120170497344 0.067377273862601686 0 0.03001180277340583 0.068062210480680244 0 0.033324120170497344 0.067377273862601686 0 0.033370380047508676 0.064999421374017291 0 0.035564620354801416 0.066897692995370961 0 0.033324120170497344 0.067377273862601686 0 0.033370380047508676 0.064999421374017291 0 0.031194327391860843 0.066256834471975834 0 0.033370380047508676 0.064999421374017291 0 0.035564620354801416 0.066897692995370961 0 0.036937497669249711 0.064999919298322203 0 0.034785092461829085 0.068956517636027739 0 0.033324120170497344 0.067377273862601686 0 0.035564620354801416 0.066897692995370961 0 0.034785092461829085 0.068956517636027739 0 0.035564620354801416 0.066897692995370961 0 0.036730495943063553 0.068714318216200623 0 0.036730495943063553 0.068714318216200623 0 0.037899278176738119 0.066701074557507678 0 0.038725578125508385 0.06841020573867089 0 0.035564620354801416 0.066897692995370961 0 0.036730495943063553 0.068714318216200623 0 0.037899278176738119 0.066701074557507678 0 0.036937497669249711 0.064999919298322203 0 0.037899278176738119 0.066701074557507678 0 0.040504357091990476 0.064999892085790226 0 0.035564620354801416 0.066897692995370961 0 0.036937497669249711 0.064999919298322203 0 0.037899278176738119 0.066701074557507678 0 0.037899278176738119 0.066701074557507678 0 0.040504357091990476 0.064999892085790226 0 0.039729396917651059 0.067086415628345414 0 0.039729396917651059 0.067086415628345414 0 0.038725578125508385 0.06841020573867089 0 0.040787155719188214 0.068330946456519215 0 0.037899278176738119 0.066701074557507678 0 0.039729396917651059 0.067086415628345414 0 0.038725578125508385 0.06841020573867089 0 0.038725578125508385 0.06841020573867089 0 0.039740335016037222 0.069672297570770717 0 0.040787155719188214 0.068330946456519215 0 0.039740335016037222 0.069672297570770717 0 0.039335371656112235 0.071355793724873592 0 0.040649639050781269 0.070705873026698215 0 0.039740335016037222 0.069672297570770717 0 0.037995141215692418 0.070217988858960093 0 0.039335371656112235 0.071355793724873592 0 0.038725578125508385 0.06841020573867089 0 0.039740335016037222 0.069672297570770717 0 0.037995141215692418 0.070217988858960093 0 0.035719182948455996 0.071092995179387428 0 0.036730495943063553 0.068714318216200623 0 0.037995141215692418 0.070217988858960093 0 0.036730495943063553 0.068714318216200623 0 0.038725578125508385 0.06841020573867089 0 0.037995141215692418 0.070217988858960093 0 0.035719182948455996 0.071092995179387428 0 0.037995141215692418 0.070217988858960093 0 0.037958133261358669 0.072135074714577349 0 0.037995141215692418 0.070217988858960093 0 0.037958133261358669 0.072135074714577349 0 0.039335371656112235 0.071355793724873592 0 0.037958133261358669 0.072135074714577349 0 0.039335371656112235 0.071355793724873592 0 0.03941251200748707 0.072863394056915151 0 0.039335371656112235 0.071355793724873592 0 0.041198484993968824 0.072231565980282422 0 0.03941251200748707 0.072863394056915151 0 0.039335371656112235 0.071355793724873592 0 0.040649639050781269 0.070705873026698215 0 0.041198484993968824 0.072231565980282422 0 0.037325299087421639 0.067432494577143537 0 0.037733785993273879 0