<?xml version="1.0"?>
<VTKFile type="UnstructuredGrid" version="0.1" byte_order="LittleEndian">
<UnstructuredGrid>
<Piece NumberOfPoints="31898" NumberOfCells="11152">
<Points>
<DataArray type="Float64" NumberOfComponents="3" format="ascii">
-0.5 -0.5 0 -0.47620991077874902 -0.44978878706170539 0 -0.49999999999999473 -0.42132396840504388 0 -0.5 -0.5 0 -0.47160970827802529 -0.4793630013852106 0 -0.47620991077874902 -0.44978878706170539 0 -0.5 -0.5 0 -0.47160970827802529 -0.4793630013852106 0 -0.44860394795025399 -0.5 0 -0.47160970827802529 -0.4793630013852106 0 -0.44860394795025399 -0.5 0 -0.4490820238307246 -0.45820516232899983 0 -0.44860394795025399 -0.5 0 -0.4490820238307246 -0.45820516232899983 0 -0.42881687682924802 -0.47781464288736519 0 -0.4490820238307246 -0.45820516232899983 0 -0.45555437223955858 -0.42914059360647611 0 -0.4490820238307246 -0.45820516232899983 0 -0.45555437223955858 -0.42914059360647611 0 -0.43867285131603428 -0.4271457417558665 0 -0.4490820238307246 -0.45820516232899983 0 -0.43867285131603428 -0.4271457417558665 0 -0.4263356171060747 -0.44269880333887462 0 -0.47160970827802529 -0.4793630013852106 0 -0.4490820238307246 -0.45820516232899983 0 -0.47620991077874902 -0.44978878706170539 0 -0.4490820238307246 -0.45820516232899983 0 -0.47620991077874902 -0.44978878706170539 0 -0.45555437223955858 -0.42914059360647611 0 -0.47620991077874902 -0.44978878706170539 0 -0.48101336032419229 -0.41069999664450008 0 -0.45555437223955858 -0.42914059360647611 0 -0.47620991077874902 -0.44978878706170539 0 -0.49999999999999473 -0.42132396840504388 0 -0.48101336032419229 -0.41069999664450008 0 -0.49999999999999473 -0.42132396840504388 0 -0.48101336032419229 -0.41069999664450008 0 -0.5 -0.393886241813306 0 -0.49999999999999473 -0.42132396840504388 0 -0.48101336032419229 -0.41069999664450008 0 -0.5 -0.393886241813306 0 -0.47854472220918332 -0.38978458738689759 0 -0.48422759779560409 -0.37130120630367158 0 -0.5 -0.393886241813306 0 -0.5 -0.36644851522156802 0 -0.48422759779560409 -0.37130120630367158 0 -0.48101336032419229 -0.41069999664450008 0 -0.5 -0.393886241813306 0 -0.47854472220918332 -0.38978458738689759 0 -0.48101336032419229 -0.41069999664450008 0 -0.47854472220918332 -0.38978458738689759 0 -0.46202672064839212 -0.40007602488395211 0 -0.48101336032419229 -0.41069999664450008 0 -0.46202672064839212 -0.40007602488395211 0 -0.47854472220918332 -0.38978458738689759 0 -0.46725442735267431 -0.37660061361585562 0 -0.46202672064839212 -0.40007602488395211 0 -0.47854472220918332 -0.38978458738689759 0 -0.46725442735267431 -0.37660061361585562 0 -0.48422759779560409 -0.37130120630367158 0 -0.46725442735267431 -0.37660061361585562 0 -0.46202672064839212 -0.40007602488395211 0 -0.46725442735267431 -0.37660061361585562 0 -0.45645674801697989 -0.38644133236760531 0 -0.46202672064839212 -0.40007602488395211 0 -0.46725442735267431 -0.37660061361585562 0 -0.45645674801697989 -0.38644133236760531 0 -0.4540003998136638 -0.37455519391687309 0 -0.45645674801697989 -0.38644133236760531 0 -0.46202672064839212 -0.40007602488395211 0 -0.44257020456291563 -0.38918913383950271 0 -0.46202672064839212 -0.40007602488395211 0 -0.44257020456291563 -0.38918913383950271 0 -0.44727608925983742 -0.41095911152778891 0 -0.46202672064839212 -0.40007602488395211 0 -0.44257020456291563 -0.38918913383950271 0 -0.44257020456291563 -0.38918913383950271 0 -0.44727608925983742 -0.41095911152778891 0 -0.43479358559901082 -0.4041454901736512 0 -0.44257020456291563 -0.38918913383950271 0 -0.4540003998136638 -0.37455519391687309 0 -0.44172858264042247 -0.37082207246888088 0 -0.45645674801697989 -0.38644133236760531 0 -0.44257020456291563 -0.38918913383950271 0 -0.4540003998136638 -0.37455519391687309 0 -0.46202672064839212 -0.40007602488395211 0 -0.45555437223955858 -0.42914059360647611 0 -0.44727608925983742 -0.41095911152778891 0 -0.46202672064839212 -0.40007602488395211 0 -0.45555437223955858 -0.42914059360647611 0 -0.48101336032419229 -0.41069999664450008 0 -0.46202672064839212 -0.40007602488395211 0 -0.45555437223955858 -0.42914059360647611 0 -0.44727608925983742 -0.41095911152778891 0 -0.43867285131603428 -0.4271457417558665 0 -0.43676601469929588 -0.41441201227470881 0 -0.44727608925983742 -0.41095911152778891 0 -0.43676601469929588 -0.41441201227470881 0 -0.43479358559901082 -0.4041454901736512 0 -0.45555437223955858 -0.42914059360647611 0 -0.44727608925983742 -0.41095911152778891 0 -0.43867285131603428 -0.4271457417558665 0 -0.43867285131603428 -0.4271457417558665 0 -0.42681803064840879 -0.42717069814352421 0 -0.4263356171060747 -0.44269880333887462 0 -0.42681803064840879 -0.42717069814352421 0 -0.41531815884496182 -0.42985383783075998 0 -0.4263356171060747 -0.44269880333887462 0 -0.42681803064840879 -0.42717069814352421 0 -0.42624289495594048 -0.42089725947505818 0 -0.42083332353326591 -0.42146747131641099 0 -0.42681803064840879 -0.42717069814352421 0 -0.43096994786351572 -0.41951492446283251 0 -0.42624289495594048 -0.42089725947505818 0 -0.43867285131603428 -0.4271457417558665 0 -0.42681803064840879 -0.42717069814352421 0 -0.43096994786351572 -0.41951492446283251 0 -0.43867285131603428 -0.4271457417558665 0 -0.43676601469929588 -0.41441201227470881 0 -0.43096994786351572 -0.41951492446283251 0 -0.43676601469929588 -0.41441201227470881 0 -0.43096994786351572 -0.41951492446283251 0 -0.42907264086257813 -0.41311715872526122 0 -0.43676601469929588 -0.41441201227470881 0 -0.42907264086257813 -0.41311715872526122 0 -0.43479358559901082 -0.4041454901736512 0 -0.42907264086257813 -0.41311715872526122 0 -0.43479358559901082 -0.4041454901736512 0 -0.42460885511582858 -0.40417321677700252 0 -0.42907264086257813 -0.41311715872526122 0 -0.41997834854398469 -0.41180534796019508 0 -0.42907264086257813 -0.41311715872526122 0 -0.42635027777857132 -0.41543594397746519 0 -0.41997834854398469 -0.41180534796019508 0 -0.42907264086257813 -0.41311715872526122 0 -0.41997834854398469 -0.41180534796019508 0 -0.42460885511582858 -0.40417321677700252 0 -0.42635027777857132 -0.41543594397746519 0 -0.41997834854398469 -0.41180534796019508 0 -0.42635027777857132 -0.41543594397746519 0 -0.42083332353326591 -0.42146747131641099 0 -0.41997834854398469 -0.41180534796019508 0 -0.43096994786351572 -0.41951492446283251 0 -0.42624289495594048 -0.42089725947505818 0 -0.42635027777857132 -0.41543594397746519 0 -0.43096994786351572 -0.41951492446283251 0 -0.42907264086257813 -0.41311715872526122 0 -0.42635027777857132 -0.41543594397746519 0 -0.42624289495594048 -0.42089725947505818 0 -0.42635027777857132 -0.41543594397746519 0 -0.42083332353326591 -0.42146747131641099 0 -0.42083332353326591 -0.42146747131641099 0 -0.41997834854398469 -0.41180534796019508 0 -0.40992282953163789 -0.42011435591993562 0 -0.41997834854398469 -0.41180534796019508 0 -0.39756877647335259 -0.40857286797681719 0 -0.41997834854398469 -0.41180534796019508 0 -0.40992282953163789 -0.42011435591993562 0 -0.39756877647335259 -0.40857286797681719 0 -0.40992282953163789 -0.42011435591993562 0 -0.41531815884496182 -0.42985383783075998 0 -0.39591554026262499 -0.42887225451549271 0 -0.41531815884496182 -0.42985383783075998 0 -0.39591554026262499 -0.42887225451549271 0 -0.41160927495564159 -0.44339431233754628 0 -0.42083332353326591 -0.42146747131641099 0 -0.40992282953163789 -0.42011435591993562 0 -0.41531815884496182 -0.42985383783075998 0 -0.42681803064840879 -0.42717069814352421 0 -0.42083332353326591 -0.42146747131641099 0 -0.41531815884496182 -0.42985383783075998 0 -0.44257020456291563 -0.38918913383950271 0 -0.42311368847744002 -0.37830224279505142 0 -0.42594061475171041 -0.39368797999533162 0 -0.44257020456291563 -0.38918913383950271 0 -0.42311368847744002 -0.37830224279505142 0 -0.44172858264042247 -0.37082207246888088 0 -0.44257020456291563 -0.38918913383950271 0 -0.42311368847744002 -0.37830224279505142 0 -0.42311368847744002 -0.37830224279505142 0 -0.42594061475171041 -0.39368797999533162 0 -0.416587075656149 -0.38785930376960043 0 -0.44257020456291563 -0.38918913383950271 0 -0.42594061475171041 -0.39368797999533162 0 -0.43479358559901082 -0.4041454901736512 0 -0.42594061475171041 -0.39368797999533162 0 -0.43479358559901082 -0.4041454901736512 0 -0.42460885511582858 -0.40417321677700252 0 -0.41997834854398469 -0.41180534796019508 0 -0.41325908582185972 -0.39811010703057192 0 -0.39770572831670092 -0.39911486077581648 0 -0.41997834854398469 -0.41180534796019508 0 -0.39770572831670092 -0.39911486077581648 0 -0.42594061475171041 -0.39368797999533162 0 -0.42460885511582858 -0.40417321677700252 0 -0.41325908582185972 -0.39811010703057192 0 -0.41997834854398469 -0.41180534796019508 0 -0.42460885511582858 -0.40417321677700252 0 -0.41325908582185972 -0.39811010703057192 0 -0.42594061475171041 -0.39368797999533162 0 -0.41325908582185972 -0.39811010703057192 0 -0.416587075656149 -0.38785930376960043 0 -0.41325908582185972 -0.39811010703057192 0 -0.416587075656149 -0.38785930376960043 0 -0.40403491357358612 -0.38133688525744702 0 -0.42311368847744002 -0.37830224279505142 0 -0.40403491357358612 -0.38133688525744702 0 -0.40365717239196519 -0.36741535175059892 0 -0.42311368847744002 -0.37830224279505142 0 -0.416587075656149 -0.38785930376960043 0 -0.40403491357358612 -0.38133688525744702 0 -0.40403491357358612 -0.38133688525744702 0 -0.39190790742475001 -0.38540387676521748 0 -0.39770572831670092 -0.39911486077581648 0 -0.40403491357358612 -0.38133688525744702 0 -0.39190790742475001 -0.38540387676521748 0 -0.3904578797192948 -0.37473938743617019 0 -0.41325908582185972 -0.39811010703057192 0 -0.40403491357358612 -0.38133688525744702 0 -0.39770572831670092 -0.39911486077581648 0 -0.39770572831670092 -0.39911486077581648 0 -0.37543310808941849 -0.38642437359143528 0 -0.39770572831670092 -0.39911486077581648 0 -0.37515920440272033 -0.40534038799344108 0 -0.37543310808941849 -0.38642437359143528 0 -0.39770572831670092 -0.39911486077581648 0 -0.37515920440272033 -0.40534038799344108 0 -0.39756877647335259 -0.40857286797681719
[...]
<PointData Scalars="" Vectors="displacement," Tensors="">
<DataArray type="Float64" Name="displacement" NumberOfComponents="3" format="ascii">
3.157240989272814e-06 0.064994056719090365 0 0.00031663042728909536 0.060770048203072323 0 -6.6827800476528218e-06 0.054787268724419073 0 3.157240989272814e-06 0.064994056719090365 0 0.00029177371304379149 0.063516195410345463 0 0.00031663042728909536 0.060770048203072323 0 3.157240989272814e-06 0.064994056719090365 0 0.00029177371304379149 0.063516195410345463 0 -1.0883042656009796e-08 0.064998413829146132 0 0.00029177371304379149 0.063516195410345463 0 -1.0883042656009796e-08 0.064998413829146132 0 0.00016159538364164252 0.06351811272227656 0 -1.0883042656009796e-08 0.064998413829146132 0 0.00016159538364164252 0.06351811272227656 0 0.00012709158767791381 0.064564121678074002 0 0.00055767167755763254 0.059539658139880033 0 -1.5948625618259367e-05 0.057849370735817363 0 0.00016159538364164252 0.06351811272227656 0 -0.00072550491072043784 0.063465162617121124 0 -0.00078264619443908258 0.063823612765925603 0 0.00016159538364164252 0.06351811272227656 0 -0.00078264619443908258 0.063823612765925603 0 -0.0003832001053119698 0.064230549424149963 0 0.00029177371304379149 0.063516195410345463 0 0.00016159538364164252 0.06351811272227656 0 0.00031663042728909536 0.060770048203072323 0 0.00016159538364164252 0.06351811272227656 0 0.00031663042728909536 0.060770048203072323 0 -0.0011575073981177123 0.06198960770001713 0 0.00031663042728909536 0.060770048203072323 0 -0.0024599850067035696 0.058731959727332479 0 -0.0011575073981177123 0.06198960770001713 0 0.00031663042728909536 0.060770048203072323 0 -6.6827800476528218e-06 0.054787268724419073 0 -0.0024599850067035696 0.058731959727332479 0 -3.6777065018418789e-06 0.054766499482260859 0 -0.00055950669704758933 0.050503461400671738 0 1.552008768172771e-06 0.051205230683055374 0 -2.268584176959936e-06 0.054769995923246696 0 -0.00095514941605057959 0.053796814345866736 0 1.552008768172771e-06 0.051205230683055374 0 0.00014751264898534198 0.049193662767579582 0 0.00031131378424063171 0.047879925080171123 0 1.552008768172771e-06 0.051205230683055374 0 4.7340628163450948e-07 0.047637893796548723 0 0.00031131378424063171 0.047879925080171123 0 -0.00055950669704758933 0.050503461400671738 0 1.552008768172771e-06 0.051205230683055374 0 0.00014751264898534198 0.049193662767579582 0 -0.00055950669704758933 0.050503461400671738 0 0.00014751264898534198 0.049193662767579582 0 -0.00024533998977860713 0.048714112140671721 0 -0.00095514941605057959 0.053796814345866736 0 -0.0013969740379343959 0.051835713582169651 0 0.00014751264898534198 0.049193662767579582 0 0.00038314776585213146 0.048292018465010272 0 -0.00024533998977860713 0.048714112140671721 0 0.00014751264898534198 0.049193662767579582 0 0.00038314776585213146 0.048292018465010272 0 0.00031131378424063171 0.047879925080171123 0 -0.00099129866177177003 0.047078754978846782 0 -0.0013969740379343959 0.051835713582169651 0 -0.001418514370117038 0.037874891319481407 0 -0.00091030889133224648 0.038390908821844108 0 -0.00024845734458626723 0.038137667794088566 0 -0.001418514370117038 0.037874891319481407 0 -0.00091030889133224648 0.038390908821844108 0 -0.001454677686062573 0.038478531691919685 0 -0.00091030889133224648 0.038390908821844108 0 -0.00024845734458626723 0.038137667794088566 0 -0.00075916046787034104 0.039060188383703003 0 -0.0010316953369901873 0.06360207022712612 0 -0.00090965527381012257 0.063760935230410723 0 -0.00097931407528398283 0.063688541651947858 0 -0.0013969740379343959 0.051835713582169651 0 -0.0011792247169201628 0.051300009408619569 0 -0.00090965527381012257 0.063760935230410723 0 -0.00097931407528398283 0.063688541651947858 0 -0.0009994813055656047 0.063751801481328432 0 -0.00075916046787034104 0.039060188383703003 0 -0.001454677686062573 0.038478531691919685 0 -0.0016191242317345586 0.039083612997814536 0 -0.00091030889133224648 0.038390908821844108 0 -0.00075916046787034104 0.039060188383703003 0 -0.001454677686062573 0.038478531691919685 0 -0.0010316953369901873 0.06360207022712612 0 -0.00072550491072043784 0.063465162617121124 0 -0.00097931407528398283 0.063688541651947858 0 -0.0013969740379343959 0.051835713582169651 0 -1.5948625618259367e-05 0.057849370735817363 0 -0.0024599850067035696 0.058731959727332479 0 -0.0037967532082166444 0.060910038586183379 0 -0.0011575073981177123 0.06198960770001713 0 -0.00097931407528398283 0.063688541651947858 0 -0.00078264619443908258 0.063823612765925603 0 -0.00098772215738193204 0.063796214543722932 0 -0.00097931407528398283 0.063688541651947858 0 -0.00098772215738193204 0.063796214543722932 0 -0.0009994813055656047 0.063751801481328432 0 -0.00072550491072043784 0.063465162617121124 0 -0.00097931407528398283 0.063688541651947858 0 -0.00078264619443908258 0.063823612765925603 0 -0.00078264619443908258 0.063823612765925603 0 -0.00074849176746217617 0.064101233034400407 0 -0.0003832001053119698 0.064230549424149963 0 -0.00074849176746217617 0.064101233034400407 0 -0.00067474820011815889 0.064415471027477827 0 -0.0003832001053119698 0.064230549424149963 0 -0.00074849176746217617 0.064101233034400407 0 -0.00088893909994273686 0.064062472867854783 0 -0.00087025251586047485 0.064231898374618138 0 -0.00074849176746217617 0.064101233034400407 0 -0.00092233245678569541 0.063916498450604944 0 -0.00088893909994273686 0.064062472867854783 0 -0.00078264619443908258 0.063823612765925603 0 -0.00074849176746217617 0.064101233034400407 0 -0.00092233245678569541 0.063916498450604944 0 -0.00078264619443908258 0.063823612765925603 0 -0.00098772215738193204 0.063796214543722932 0 -0.00092233245678569541 0.063916498450604944 0 -0.00098772215738193204 0.063796214543722932 0 -0.00092233245678569541 0.063916498450604944 0 -0.0010936682668763048 0.063836876555624991 0 -0.00098772215738193204 0.063796214543722932 0 -0.0010936682668763048 0.063836876555624991 0 -0.0009994813055656047 0.063751801481328432 0 -0.0010936682668763048 0.063836876555624991 0 -0.0009994813055656047 0.063751801481328432 0 -0.0010153374607300319 0.063623621569679822 0 -0.00228043567834718 0.062481429819044407 0 -0.0023023323119787838 0.062314064716796402 0 -0.0010936682668763048 0.063836876555624991 0 -0.0010180575672558687 0.064004758778444845 0 -0.0012247207799074154 0.064337988260157103 0 -0.0010936682668763048 0.063836876555624991 0 -0.0011959641664674792 0.063523707235560362 0 -0.0010153374607300319 0.063623621569679822 0 -0.0023030837143802173 0.062399096751347735 0 -0.0023023323119787838 0.062314064716796402 0 -0.0010180575672558687 0.064004758778444845 0 -0.00087025251586047485 0.064231898374618138 0 -0.0011323894765911204 0.06424931300467214 0 -0.00092233245678569541 0.063916498450604944 0 -0.00088893909994273686 0.064062472867854783 0 -0.0010180575672558687 0.064004758778444845 0 -0.00092233245678569541 0.063916498450604944 0 -0.0010936682668763048 0.063836876555624991 0 -0.0010180575672558687 0.064004758778444845 0 -0.00088893909994273686 0.064062472867854783 0 -0.0010180575672558687 0.064004758778444845 0 -0.00087025251586047485 0.064231898374618138 0 -0.00087025251586047485 0.064231898374618138 0 -0.0011323894765911204 0.06424931300467214 0 -0.00090610416258933861 0.064522781976133842 0 -0.0023023323119787838 0.062314064716796402 0 -0.0019035607821031729 0.061945257196742355 0 -0.0011323894765911204 0.06424931300467214 0 -0.00090610416258933861 0.064522781976133842 0 -0.0011743850132974779 0.064815274883081975 0 -0.00090610416258933861 0.064522781976133842 0 -0.00067474820011815889 0.064415471027477827 0 -0.00070141065667352575 0.064857889812898931 0 -0.00067474820011815889 0.064415471027477827 0 -0.00070141065667352575 0.064857889812898931 0 -0.00037354398174760319 0.064550915389732996 0 -0.00087025251586047485 0.064231898374618138 0 -0.00090610416258933861 0.064522781976133842 0 -0.00067474820011815889 0.064415471027477827 0 -0.00074849176746217617 0.064101233034400407 0 -0.00087025251586047485 0.064231898374618138 0 -0.00067474820011815889 0.064415471027477827 0 -0.00090965527381012257 0.063760935230410723 0 -0.00050950534087802345 0.063513737112563709 0 -0.00085807652640498139 0.063594084468049553 0 -0.00075916046787034104 0.039060188383703003 0 -0.0012506617525538989 0.040016971340716849 0 -0.0016191242317345586 0.039083612997814536 0 -0.0011792247169201628 0.051300009408619569 0 -0.0012678848788526169 0.050996708531061148 0 -0.00050950534087802345 0.063513737112563709 0 -0.00085807652640498139 0.063594084468049553 0 -0.0007081675107083158 0.06336074210971343 0 -0.00090965527381012257 0.063760935230410723 0 -0.00085807652640498139 0.063594084468049553 0 -0.0009994813055656047 0.063751801481328432 0 -0.00085807652640498139 0.063594084468049553 0 -0.0009994813055656047 0.063751801481328432 0 -0.0010153374607300319 0.063623621569679822 0 -0.0011959641664674792 0.063523707235560362 0 -0.00093869211546876604 0.063302228004144548 0 -0.0010197478810441568 0.062838466873265483 0 -0.0023023323119787838 0.062314064716796402 0 -0.0024000343762415107 0.060361073041906702 0 -0.00085807652640498139 0.063594084468049553 0 -0.0010153374607300319 0.063623621569679822 0 -0.00093869211546876604 0.063302228004144548 0 -0.0011959641664674792 0.063523707235560362 0 -0.0010153374607300319 0.063623621569679822 0 -0.00093869211546876604 0.063302228004144548 0 -0.00085807652640498139 0.063594084468049553 0 -0.00093869211546876604 0.063302228004144548 0 -0.0007081675107083158 0.06336074210971343 0 -0.00093869211546876604 0.063302228004144548 0 -0.0007081675107083158 0.06336074210971343 0 -0.00051727510141102756 0.063014528412427342 0 -0.00050950534087802345 0.063513737112563709 0 -0.00051727510141102756 0.063014528412427342 0 -0.00016148879418343215 0.062985177842556098 0 -0.00050950534087802345 0.063513737112563709 0 -0.0007081675107083158 0.06336074210971343 0 -0.00051727510141102756 0.063014528412427342 0 -0.00051727510141102756 0.063014528412427342 0 -0.00062143010104499308 0.062615316472280191 0 -0.0010197478810441568 0.062838466873265483 0 -0.00051727510141102756 0.063014528412427342 0 -0.00062143010104499308 0.062615316472280191 0 -0.00027088944589094804 0.062546388008894074 0 -0.00093869211546876604 0.063302228004144548 0 -0.00051727510141102756 0.063014528412427342 0 -0.0010197478810441568 0.062838466873265483 0 -0.0024000343762415107 0.060361073041906702 0 -0.0021576841740278919 0.056369679308836108 0 -0.0022821745327761388 0.060225008187932881 0 -0.0027182638041967594 0.058639820369467591 0 -0.0013926600304878902 0.05865493623040674 0 -0.0022821745327761388 0.060225008187932881 0 -0.0027182638041967594 0.058639820369467591 0 -0.0029463060930822577 0.060216778267361007 0 -0.0012861284548073934 0.060295465898299004 0 -0.0021576841740278919 0.056369679308836108 0 -0.00066747986056092982 0.062044430124381829 0 -0.00027088944589094804 0.062546388008894074 0 -7.9710597881262803e-05 0.062022522275708002 0 -0.00062143010104499308 0.062615316472280191 0 -0.00066747986056092982 0.062044430124381829 0 -0.00027088944589094804 0.062546388008894074 0 -0.0021576841740278919 0.056369679308836108 0 -0.0014547169353864259 0.052879496472725114 0 -0.00062143010104499308 0.062615316472280191 0 -0.0010197478810441568 0.062838466873265483 0 -0.00066747986056092982 0.062044430124381829 0 -0.0031727515256745708 0.061796614991210724 0 -0.0022821745327761388 0.060225008187932881 0 -0.0029463060930822577 0.060216778267361007 0 -0.00090610416258933861 0.064522781976133842 0 -0.00070141065667352575 0.064857889812898931 0 -0.0011743850132974779 0.064815274883081975 0 -0.0012384222543687182 0.065310288381475956 0 -0.00070141065667352575 0.064857889812898931 0 -0.0011743850132974779 0.064815274883081975 0 -0.0012861284548073934 0.060295465898299004 0 -0.0019035607821031729 0.061945257196742355 0 -0.0012384222543687182 0.065310288381475956 0 -0.00070141065667352575 0.064857889812898931 0 -0.00055854544618690245 0.065318135279394424 0 -0.00070141065667352575 0.064857889812898931 0 -0.00031926604357572692 0.064925945268714855 0 -0.00055854544618690245 0.065318135279394424 0 -0.00031926604357572692 0.064925945268714855 0 8.1176923071303865e-05 0.06532056728459569 0 -0.00055854544618690245 0.065318135279394424 0 -0.00070141065667352575 0.064857889812898931 0 -0.00031926604357572692 0.064925945268714855 0 -0.00037354398174760319 0.064550915389732996 0 -0.00031926604357572692 0.064925945268714855 0 -9.1753916821297674e-05 0.064702922027804241 0 -0.00037354398174760319 0.064550915389732996 0 -8.6602753139259096e-05 0.064756508819102637 0 4.0582118474465663e-05 0.064910217303376247 0 4.2312057980447508e-05 0.064699477669762015 0 -9.1349312579619082e-06 0.064989858878029799 0 -7.3536606903575257e-06 0.064995359886584822 0 -1.551625891769614e-06 0.064995422116455911 0 -0.00012135593456438632 0.064803914031073218 0 -1.0283706943111697e-05 0.064931195028002694 0 -0.00012135593456438632 0.064803914031073218 0 -0.00012146533500790784 0.064803067367727674 0 -0.00012135593456438632 0.064803914031073218 0 -0.00013051694523018271 0.064725723264496049 0 -0.00031926604357572692 0.064925945268714855 0 -9.1753916821297674e-05 0.064702922027804241 0 -5.0605621629206444e-06 0.065008290685542314 0 -0.00031926604357572692 0.064925945268714855 0 -5.0605621629206444e-06 0.065008290685542314 0 8.1176923071303865e-05 0.06532056728459569 0 -0.00013051694523018271 0.064725723264496049 0 -0.00021672060248100904 0.064399119052619053 0 -7.3536606903575257e-06 0.064995359886584822 0 -3.6539170267327394e-06 0.064997053781701744 0 -5.7640929105083505e-06 0.06499949283510037 0 -3.6539170267327394e-06 0.064997053781701744 0 -1.551625891769614e-06 0.064995422116455911 0 -1.1746843520387638e-06 0.06499934283273863 0 -1.551625891769614e-06 0.064995422116455911 0 -5.737277914929823e-07 0.064999544643981957 0 -1.1746843520387638e-06 0.06499934283273863 0 -3.6539170267327394e-06 0.064997053781701744 0 -1.1746843520387638e-06 0.06499934283273863 0 -5.7640929105083505e-06 0.06499949283510037 0 -7.3536606903575257e-06 0.064995359886584822 0 -3.6539170267327394e-06 0.064997053781701744 0 -1.551625891769614e-06 0.064995422116455911 0 4.7455520971949817e-08 0.064999896030611792 0 -1.0283706943111697e-05 0.064931195028002694 0 2.837575306273558e-09 0.064999996007219063 0 -1.551625891769614e-06 0.064995422116455911 0 -5.737277914929823e-07 0.064999544643981957 0 -1.0529613790906255e-07 0.064999969178730008 0 4.0582118474465663e-05 0.064910217303376247 0 2.6171780657302316e-07 0.064999778587159121 0 4.0582118474465663e-05 0.064910217303376247 0 4.2312057980447508e-05 0.064699477669762015 0 2.6171780657302316e-07 0.064999778587159121 0 4.2312057980447508e-05 0.064699477669762015 0 2.6171780657302316e-07 0.064999778587159121 0 0.00012709158767791381 0.064564121678074002 0 -1.0883042656009796e-08 0.064998413829146132 0 2.6171780657302316e-07 0.064999778587159121 0 0.00012709158767791381 0.064564121678074002 0 4.2312057980447508e-05 0.064699477669762015 0 0.00012709158767791381 0.064564121678074002 0 -1.9268274272571105e-06 0.064357764677461737 0 0.00016159538364164252 0.06351811272227656 0 0.00012709158767791381 0.064564121678074002 0 -1.9268274272571105e-06 0.064357764677461737 0 0.00016159538364164252 0.06351811272227656 0 -1.9268274272571105e-06 0.064357764677461737 0 -0.0003832001053119698 0.064230549424149963 0 -1.9268274272571105e-06 0.064357764677461737 0 -0.0003832001053119698 0.064230549424149963 0 -0.00014624480426305648 0.064516678558995733 0 -0.0003832001053119698 0.064230549424149963 0 -0.00037354398174760319 0.064550915389732996 0 -0.00014624480426305648 0.064516678558995733 0 -0.00067474820011815889 0.064415471027477827 0 -0.0003832001053119698 0.064230549424149963 0 -0.00037354398174760319 0.064550915389732996 0 -8.7797062909766833e-05 0.06478114431159443 0 -0.00037354398174760319 0.064550915389732996 0 -0.00010059483765693131 0.064719468671018146 0 -0.00037354398174760319 0.064550915389732996 0 -0.00010059483765693131 0.064719468671018146 0 -0.00014624480426305648 0.064516678558995733 0 -0.00012135593456438632 0.064803914031073218 0 -0.00017483080604279697 0.064764917216295667 0 4.2312057980447508e-05 0.064699477669762015 0 -0.00010059483765693131 0.064719468671018146 0 -0.00014624480426305648 0.064516678558995733 0 -8.6602753139259096e-05 0.064756508819102637 0 4.2312057980447508e-05 0.064699477669762015 0 -0.00010059483765693131 0.064719468671018146 0 4.2312057980447508e-05 0.064699477669762015 0 -1.9268274272571105e-06 0.064357764677461737 0 -0.00014624480426305648 0.064516678558995733 0 -0.00219840016576204 0.033477142311072863 0 -0.0031197295977981802 0.031847470692040657 0 -0.00095275082982003076 0.032640936377931466 0 -0.0011235507963295167 0.031691002503283369 0 -0.0006795496339735954 0.032318097604325642 0 0.00021962098537437052 0.036396236681314649 0 -0.00028380917150879479 0.036314371439156681 0 -0.00015712222576355197 0.036558851615022737 0 0.00021962098537437052 0.036396236681314649 0 0.00012610174957197886 0.036460459229923602 0 -0.00015712222576355197 0.036558851615022737 0 0.00021962098537437052 0.036396236681314649 0 0.0001298169376875942 0.036280074000529891 0 0.00012610174957197886 0.036460459229923602 0 0.00021962098537437052 0.036396236681314649 0 0.00020129132345336035 0.03587994664616271 0 0.00033382421641846744 0.036516432483187894 0 0.00021962098537437052 0.036396236681314649 0 0.00020129132345336035 0.03587994664616271 0 -0.00028380917150879479 0.036314371439156681 0 -0.00219840016576204 0.033477142311072863 0 -0.0018924911597281769 0.033765841693657032 0 0.00020129132345336035 0.03587994664616271 0 -0.00028380917150879479 0.036314371439156681 0 -0.0002748981976070679 0.034366515138914297 0 -0.00095275082982003076 0.032640936377931466 0 -0.0002748981976070679 0.034366515138914297 0 -0.00015064969065622217 0.033090612818733212 0 -0.0002748981976070679 0.034366515138914297 0 7.5328318175371345e-07 0.033370238639662396 0 0.00022446666592127956 0.035779771144351671 0 -0.0002748981976070679 0.034366515138914297 0 7.5328318175371345e-07 0.033370238639662396 0 2.1809356611284221e-05 0.032617470222884686 0 7.5328318175371345e-07 0.033370238639662396 0 0.00022446666592127956 0.035779771144351671 0 6.7055050946857431e-07 0.036937589054767281 0 0.00020129132345336035 0.03587994664616271 0 -0.0002748981976070679 0.034366515138914297 0 0.00022446666592127956 0.035779771144351671 0 0.00020129132345336035 0.03587994664616271 0 0.00022446666592127956 0.035779771144351671 0 0.00033382421641846744 0.036516432483187894 0 0.00033382421641846744 0.036516432483187894 0 0.00014127823929980477 0.037645416550309251 0 4.3581080802101143e-05 0.037423631096026831 0 0.00022446666592127956 0.035779771144351671 0 0.00033382421641846744 0.036516432483187894 0 0.00014127823929980477 0.037645416550309251 0 6.7055050946857431e-07 0.036937589054767281 0 0.00014127823929980477 0.037645416550309251 0 -8.4884845474043675e-07 0.040504250744743148 0 0.00022446666592127956 0.035779771144351671 0 6.7055050946857431e-07 0.036937589054767281 0 0.00014127823929980477 0.037645416550309251 0 0.00014127823929980477 0.037645416550309251 0 -8.4884845474043675e-07 0.040504250744743148 0 -0.00027317687861031913 0.039087171580314127 0 -0.00027317687861031913 0.039087171580314127 0 4.3581080802101143e-05 0.037423631096026831 0 -0.0010133062611633124 0.037864297285833348 0 0.00014127823929980477 0.037645416550309251 0 -0.00027317687861031913 0.039087171580314127 0 4.3581080802101143e-05 0.037423631096026831 0 4.3581080802101143e-05 0.037423631096026831 0 -0.00047399042282184013 0.037000633593588406 0 -0.0010133062611633124 0.037864297285833348 0 -0.00047399042282184013 0.037000633593588406 0 -0.0003368820085245329 0.03640342208648091 0 -0.00090397077378730672 0.036637357554167811 0 -0.00047399042282184013 0.037000633593588406 0 0.00014638550109352349 0.036622499319637965 0 -0.0003368820085245329 0.03640342208648091 0 4.3581080802101143e-05 0.037423631096026831 0 -0.00047399042282184