<?xml version="1.0"?>
<VTKFile type="UnstructuredGrid" version="0.1" byte_order="LittleEndian">
<UnstructuredGrid>
<Piece NumberOfPoints="31898" NumberOfCells="11152">
<Points>
<DataArray type="Float64" NumberOfComponents="3" format="ascii">
-0.5 -0.5 0 -0.47620991077874902 -0.44978878706170539 0 -0.49999999999999473 -0.42132396840504388 0 -0.5 -0.5 0 -0.47160970827802529 -0.4793630013852106 0 -0.47620991077874902 -0.44978878706170539 0 -0.5 -0.5 0 -0.47160970827802529 -0.4793630013852106 0 -0.44860394795025399 -0.5 0 -0.47160970827802529 -0.4793630013852106 0 -0.44860394795025399 -0.5 0 -0.4490820238307246 -0.45820516232899983 0 -0.44860394795025399 -0.5 0 -0.4490820238307246 -0.45820516232899983 0 -0.42881687682924802 -0.47781464288736519 0 -0.4490820238307246 -0.45820516232899983 0 -0.45555437223955858 -0.42914059360647611 0 -0.4490820238307246 -0.45820516232899983 0 -0.45555437223955858 -0.42914059360647611 0 -0.43867285131603428 -0.4271457417558665 0 -0.4490820238307246 -0.45820516232899983 0 -0.43867285131603428 -0.4271457417558665 0 -0.4263356171060747 -0.44269880333887462 0 -0.47160970827802529 -0.4793630013852106 0 -0.4490820238307246 -0.45820516232899983 0 -0.47620991077874902 -0.44978878706170539 0 -0.4490820238307246 -0.45820516232899983 0 -0.47620991077874902 -0.44978878706170539 0 -0.45555437223955858 -0.42914059360647611 0 -0.47620991077874902 -0.44978878706170539 0 -0.48101336032419229 -0.41069999664450008 0 -0.45555437223955858 -0.42914059360647611 0 -0.47620991077874902 -0.44978878706170539 0 -0.49999999999999473 -0.42132396840504388 0 -0.48101336032419229 -0.41069999664450008 0 -0.49999999999999473 -0.42132396840504388 0 -0.48101336032419229 -0.41069999664450008 0 -0.5 -0.393886241813306 0 -0.49999999999999473 -0.42132396840504388 0 -0.48101336032419229 -0.41069999664450008 0 -0.5 -0.393886241813306 0 -0.47854472220918332 -0.38978458738689759 0 -0.48422759779560409 -0.37130120630367158 0 -0.5 -0.393886241813306 0 -0.5 -0.36644851522156802 0 -0.48422759779560409 -0.37130120630367158 0 -0.48101336032419229 -0.41069999664450008 0 -0.5 -0.393886241813306 0 -0.47854472220918332 -0.38978458738689759 0 -0.48101336032419229 -0.41069999664450008 0 -0.47854472220918332 -0.38978458738689759 0 -0.46202672064839212 -0.40007602488395211 0 -0.48101336032419229 -0.41069999664450008 0 -0.46202672064839212 -0.40007602488395211 0 -0.47854472220918332 -0.38978458738689759 0 -0.46725442735267431 -0.37660061361585562 0 -0.46202672064839212 -0.40007602488395211 0 -0.47854472220918332 -0.38978458738689759 0 -0.46725442735267431 -0.37660061361585562 0 -0.48422759779560409 -0.37130120630367158 0 -0.46725442735267431 -0.37660061361585562 0 -0.46202672064839212 -0.40007602488395211 0 -0.46725442735267431 -0.37660061361585562 0 -0.45645674801697989 -0.38644133236760531 0 -0.46202672064839212 -0.40007602488395211 0 -0.46725442735267431 -0.37660061361585562 0 -0.45645674801697989 -0.38644133236760531 0 -0.4540003998136638 -0.37455519391687309 0 -0.45645674801697989 -0.38644133236760531 0 -0.46202672064839212 -0.40007602488395211 0 -0.44257020456291563 -0.38918913383950271 0 -0.46202672064839212 -0.40007602488395211 0 -0.44257020456291563 -0.38918913383950271 0 -0.44727608925983742 -0.41095911152778891 0 -0.46202672064839212 -0.40007602488395211 0 -0.44257020456291563 -0.38918913383950271 0 -0.44257020456291563 -0.38918913383950271 0 -0.44727608925983742 -0.41095911152778891 0 -0.43479358559901082 -0.4041454901736512 0 -0.44257020456291563 -0.38918913383950271 0 -0.4540003998136638 -0.37455519391687309 0 -0.44172858264042247 -0.37082207246888088 0 -0.45645674801697989 -0.38644133236760531 0 -0.44257020456291563 -0.38918913383950271 0 -0.4540003998136638 -0.37455519391687309 0 -0.46202672064839212 -0.40007602488395211 0 -0.45555437223955858 -0.42914059360647611 0 -0.44727608925983742 -0.41095911152778891 0 -0.46202672064839212 -0.40007602488395211 0 -0.45555437223955858 -0.42914059360647611 0 -0.48101336032419229 -0.41069999664450008 0 -0.46202672064839212 -0.40007602488395211 0 -0.45555437223955858 -0.42914059360647611 0 -0.44727608925983742 -0.41095911152778891 0 -0.43867285131603428 -0.4271457417558665 0 -0.43676601469929588 -0.41441201227470881 0 -0.44727608925983742 -0.41095911152778891 0 -0.43676601469929588 -0.41441201227470881 0 -0.43479358559901082 -0.4041454901736512 0 -0.45555437223955858 -0.42914059360647611 0 -0.44727608925983742 -0.41095911152778891 0 -0.43867285131603428 -0.4271457417558665 0 -0.43867285131603428 -0.4271457417558665 0 -0.42681803064840879 -0.42717069814352421 0 -0.4263356171060747 -0.44269880333887462 0 -0.42681803064840879 -0.42717069814352421 0 -0.41531815884496182 -0.42985383783075998 0 -0.4263356171060747 -0.44269880333887462 0 -0.42681803064840879 -0.42717069814352421 0 -0.42624289495594048 -0.42089725947505818 0 -0.42083332353326591 -0.42146747131641099 0 -0.42681803064840879 -0.42717069814352421 0 -0.43096994786351572 -0.41951492446283251 0 -0.42624289495594048 -0.42089725947505818 0 -0.43867285131603428 -0.4271457417558665 0 -0.42681803064840879 -0.42717069814352421 0 -0.43096994786351572 -0.41951492446283251 0 -0.43867285131603428 -0.4271457417558665 0 -0.43676601469929588 -0.41441201227470881 0 -0.43096994786351572 -0.41951492446283251 0 -0.43676601469929588 -0.41441201227470881 0 -0.43096994786351572 -0.41951492446283251 0 -0.42907264086257813 -0.41311715872526122 0 -0.43676601469929588 -0.41441201227470881 0 -0.42907264086257813 -0.41311715872526122 0 -0.43479358559901082 -0.4041454901736512 0 -0.42907264086257813 -0.41311715872526122 0 -0.43479358559901082 -0.4041454901736512 0 -0.42460885511582858 -0.40417321677700252 0 -0.42907264086257813 -0.41311715872526122 0 -0.41997834854398469 -0.41180534796019508 0 -0.42907264086257813 -0.41311715872526122 0 -0.42635027777857132 -0.41543594397746519 0 -0.41997834854398469 -0.41180534796019508 0 -0.42907264086257813 -0.41311715872526122 0 -0.41997834854398469 -0.41180534796019508 0 -0.42460885511582858 -0.40417321677700252 0 -0.42635027777857132 -0.41543594397746519 0 -0.41997834854398469 -0.41180534796019508 0 -0.42635027777857132 -0.41543594397746519 0 -0.42083332353326591 -0.42146747131641099 0 -0.41997834854398469 -0.41180534796019508 0 -0.43096994786351572 -0.41951492446283251 0 -0.42624289495594048 -0.42089725947505818 0 -0.42635027777857132 -0.41543594397746519 0 -0.43096994786351572 -0.41951492446283251 0 -0.42907264086257813 -0.41311715872526122 0 -0.42635027777857132 -0.41543594397746519 0 -0.42624289495594048 -0.42089725947505818 0 -0.42635027777857132 -0.41543594397746519 0 -0.42083332353326591 -0.42146747131641099 0 -0.42083332353326591 -0.42146747131641099 0 -0.41997834854398469 -0.41180534796019508 0 -0.40992282953163789 -0.42011435591993562 0 -0.41997834854398469 -0.41180534796019508 0 -0.39756877647335259 -0.40857286797681719 0 -0.41997834854398469 -0.41180534796019508 0 -0.40992282953163789 -0.42011435591993562 0 -0.39756877647335259 -0.40857286797681719 0 -0.40992282953163789 -0.42011435591993562 0 -0.41531815884496182 -0.42985383783075998 0 -0.39591554026262499 -0.42887225451549271 0 -0.41531815884496182 -0.42985383783075998 0 -0.39591554026262499 -0.42887225451549271 0 -0.41160927495564159 -0.44339431233754628 0 -0.42083332353326591 -0.42146747131641099 0 -0.40992282953163789 -0.42011435591993562 0 -0.41531815884496182 -0.42985383783075998 0 -0.42681803064840879 -0.42717069814352421 0 -0.42083332353326591 -0.42146747131641099 0 -0.41531815884496182 -0.42985383783075998 0 -0.44257020456291563 -0.38918913383950271 0 -0.42311368847744002 -0.37830224279505142 0 -0.42594061475171041 -0.39368797999533162 0 -0.44257020456291563 -0.38918913383950271 0 -0.42311368847744002 -0.37830224279505142 0 -0.44172858264042247 -0.37082207246888088 0 -0.44257020456291563 -0.38918913383950271 0 -0.42311368847744002 -0.37830224279505142 0 -0.42311368847744002 -0.37830224279505142 0 -0.42594061475171041 -0.39368797999533162 0 -0.416587075656149 -0.38785930376960043 0 -0.44257020456291563 -0.38918913383950271 0 -0.42594061475171041 -0.39368797999533162 0 -0.43479358559901082 -0.4041454901736512 0 -0.42594061475171041 -0.39368797999533162 0 -0.43479358559901082 -0.4041454901736512 0 -0.42460885511582858 -0.40417321677700252 0 -0.41997834854398469 -0.41180534796019508 0 -0.41325908582185972 -0.39811010703057192 0 -0.39770572831670092 -0.39911486077581648 0 -0.41997834854398469 -0.41180534796019508 0 -0.39770572831670092 -0.39911486077581648 0 -0.42594061475171041 -0.39368797999533162 0 -0.42460885511582858 -0.40417321677700252 0 -0.41325908582185972 -0.39811010703057192 0 -0.41997834854398469 -0.41180534796019508 0 -0.42460885511582858 -0.40417321677700252 0 -0.41325908582185972 -0.39811010703057192 0 -0.42594061475171041 -0.39368797999533162 0 -0.41325908582185972 -0.39811010703057192 0 -0.416587075656149 -0.38785930376960043 0 -0.41325908582185972 -0.39811010703057192 0 -0.416587075656149 -0.38785930376960043 0 -0.40403491357358612 -0.38133688525744702 0 -0.42311368847744002 -0.37830224279505142 0 -0.40403491357358612 -0.38133688525744702 0 -0.40365717239196519 -0.36741535175059892 0 -0.42311368847744002 -0.37830224279505142 0 -0.416587075656149 -0.38785930376960043 0 -0.40403491357358612 -0.38133688525744702 0 -0.40403491357358612 -0.38133688525744702 0 -0.39190790742475001 -0.38540387676521748 0 -0.39770572831670092 -0.39911486077581648 0 -0.40403491357358612 -0.38133688525744702 0 -0.39190790742475001 -0.38540387676521748 0 -0.3904578797192948 -0.37473938743617019 0 -0.41325908582185972 -0.39811010703057192 0 -0.40403491357358612 -0.38133688525744702 0 -0.39770572831670092 -0.39911486077581648 0 -0.39770572831670092 -0.39911486077581648 0 -0.37543310808941849 -0.38642437359143528 0 -0.39770572831670092 -0.39911486077581648 0 -0.37515920440272033 -0.40534038799344108 0 -0.37543310808941849 -0.38642437359143528 0 -0.39770572831670092 -0.39911486077581648 0 -0.37515920440272033 -0.40534038799344108 0 -0.39756877647335259 -0.40857286797681719
[...]
<PointData Scalars="" Vectors="displacement," Tensors="">
<DataArray type="Float64" Name="displacement" NumberOfComponents="3" format="ascii">
0.064994651297146072 4.97008457673632e-07 0 0.06335534735468408 0.00032972368259481945 0 0.064995648181281951 1.3762721324856328e-06 0 0.064994651297146072 4.97008457673632e-07 0 0.062154973077876881 0.00021842053996489738 0 0.06335534735468408 0.00032972368259481945 0 0.064994651297146072 4.97008457673632e-07 0 0.062154973077876881 0.00021842053996489738 0 0.058322105162441837 4.8085819235790222e-07 0 0.062154973077876881 0.00021842053996489738 0 0.058322105162441837 4.8085819235790222e-07 0 0.060995987430585555 -0.00015412009295833821 0 0.058322105162441837 4.8085819235790222e-07 0 0.060995987430585555 -0.00015412009295833821 0 0.057958829633721627 0.00012506204080870386 0 0.061607284118689855 -0.00041028383272872712 0 0.061926091657732989 -0.00041272562029606122 0 0.060995987430585555 -0.00015412009295833821 0 0.059866939667013203 -0.00065215004925790743 0 0.059764172498141872 -0.00021009513394978932 0 0.060995987430585555 -0.00015412009295833821 0 0.059764172498141872 -0.00021009513394978932 0 0.059867541813249978 -2.0168251341927079e-05 0 0.062154973077876881 0.00021842053996489738 0 0.060995987430585555 -0.00015412009295833821 0 0.06335534735468408 0.00032972368259481945 0 0.060995987430585555 -0.00015412009295833821 0 0.06335534735468408 0.00032972368259481945 0 0.063966404651468578 -0.00050428146704166801 0 0.06335534735468408 0.00032972368259481945 0 0.064786206730346338 5.2727664367732613e-05 0 0.063966404651468578 -0.00050428146704166801 0 0.06335534735468408 0.00032972368259481945 0 0.064995648181281951 1.3762721324856328e-06 0 0.064786206730346338 5.2727664367732613e-05 0 0.064999997779534816 -1.8615234033158624e-10 0 0.064997236918329954 7.9326702879931982e-07 0 0.064999996625564563 1.0160728602468182e-09 0 0.064997984517616153 -7.9571273249632095e-07 0 0.064003461945217568 -0.00025516685212789036 0 0.064999996625564563 1.0160728602468182e-09 0 0.064996732436395518 1.4495205427075783e-06 0 0.064998618762519805 2.3791372026427153e-06 0 0.064999996625564563 1.0160728602468182e-09 0 0.06499999442952889 3.5916576035120377e-09 0 0.064998618762519805 2.3791372026427153e-06 0 0.064997236918329954 7.9326702879931982e-07 0 0.064999996625564563 1.0160728602468182e-09 0 0.064996732436395518 1.4495205427075783e-06 0 0.064997236918329954 7.9326702879931982e-07 0 0.064996732436395518 1.4495205427075783e-06 0 0.064993171201153555 1.1269383507401625e-06 0 0.064003461945217568 -0.00025516685212789036 0 0.062468816538463763 -0.0003074398772822217 0 0.064996732436395518 1.4495205427075783e-06 0 0.0649959499109697 1.5651376827134041e-06 0 0.064993171201153555 1.1269383507401625e-06 0 0.064996732436395518 1.4495205427075783e-06 0 0.0649959499109697 1.5651376827134041e-06 0 0.064998618762519805 2.3791372026427153e-06 0 0.063446493493324305 -0.0001298422826990415 0 0.062468816538463763 -0.0003074398772822217 0 0.062139787515060642 -0.0002757315624399518 0 0.061793856516715498 -0.00068395039814341603 0 0.061301648800524619 -0.00048404833333171867 0 0.062139787515060642 -0.0002757315624399518 0 0.061793856516715498 -0.00068395039814341603 0 0.062234390609708534 -0.00078261250245331693 0 0.061793856516715498 -0.00068395039814341603 0 0.061301648800524619 -0.00048404833333171867 0 0.061702949977803435 -0.0011875064610401276 0 0.059276697102488458 -0.00076575931244294367 0 0.059050404432521193 -0.0003933332139608788 0 0.059495540592541515 -0.00046154274697477452 0 0.062468816538463763 -0.0003074398772822217 0 0.060842628952928857 -0.00071914074452314989 0 0.059050404432521193 -0.0003933332139608788 0 0.059495540592541515 -0.00046154274697477452 0 0.059368958988489942 -0.00023288742186331309 0 0.061702949977803435 -0.0011875064610401276 0 0.062234390609708534 -0.00078261250245331693 0 0.062367933083697986 -0.0012197060532842003 0 0.061793856516715498 -0.00068395039814341603 0 0.061702949977803435 -0.0011875064610401276 0 0.062234390609708534 -0.00078261250245331693 0 0.059276697102488458 -0.00076575931244294367 0 0.059866939667013203 -0.00065215004925790743 0 0.059495540592541515 -0.00046154274697477452 0 0.062468816538463763 -0.0003074398772822217 0 0.061926091657732989 -0.00041272562029606122 0 0.064786206730346338 5.2727664367732613e-05 0 0.065014010972688538 -0.00044955412818900684 0 0.063966404651468578 -0.00050428146704166801 0 0.059495540592541515 -0.00046154274697477452 0 0.059764172498141872 -0.00021009513394978932 0 0.059586217686842698 -0.00025290768596056881 0 0.059495540592541515 -0.00046154274697477452 0 0.059586217686842698 -0.00025290768596056881 0 0.059368958988489942 -0.00023288742186331309 0 0.059866939667013203 -0.00065215004925790743 0 0.059495540592541515 -0.00046154274697477452 0 0.059764172498141872 -0.00021009513394978932 0 0.059764172498141872 -0.00021009513394978932 0 0.059762820281440518 -0.00012563271184350182 0 0.059867541813249978 -2.0168251341927079e-05 0 0.059762820281440518 -0.00012563271184350182 0 0.059774226364142348 -0.00020630931669887037 0 0.059867541813249978 -2.0168251341927079e-05 0 0.059762820281440518 -0.00012563271184350182 0 0.05971421502418793 -0.00013455071434875424 0 0.05973228696600727 -0.00015627999127628621 0 0.059762820281440518 -0.00012563271184350182 0 0.059688363350027869 -0.00016173301037916756 0 0.05971421502418793 -0.00013455071434875424 0 0.059764172498141872 -0.00021009513394978932 0 0.059762820281440518 -0.00012563271184350182 0 0.059688363350027869 -0.00016173301037916756 0 0.059764172498141872 -0.00021009513394978932 0 0.059586217686842698 -0.00025290768596056881 0 0.059688363350027869 -0.00016173301037916756 0 0.059586217686842698 -0.00025290768596056881 0 0.059688363350027869 -0.00016173301037916756 0 0.059597001140147425 -0.00013749440765271938 0 0.059586217686842698 -0.00025290768596056881 0 0.059597001140147425 -0.00013749440765271938 0 0.059368958988489942 -0.00023288742186331309 0 0.059597001140147425 -0.00013749440765271938 0 0.059368958988489942 -0.00023288742186331309 0 0.059367259444371073 -1.792623494482422e-05 0 0.05362165444383718 -0.0015328873144634979 0 0.053426111131035861 -0.0016403434760090038 0 0.059597001140147425 -0.00013749440765271938 0 0.059669576483341216 -0.00011173637316624563 0 0.059609715378857973 -8.7651260604648977e-06 0 0.059597001140147425 -0.00013749440765271938 0 0.059547088992215502 8.78305717079487e-05 0 0.059367259444371073 -1.792623494482422e-05 0 0.053612344871346571 -0.0017020948396743048 0 0.053426111131035861 -0.0016403434760090038 0 0.059669576483341216 -0.00011173637316624563 0 0.05973228696600727 -0.00015627999127628621 0 0.059746250814919251 -0.00016492356175183887 0 0.059688363350027869 -0.00016173301037916756 0 0.05971421502418793 -0.00013455071434875424 0 0.059669576483341216 -0.00011173637316624563 0 0.059688363350027869 -0.00016173301037916756 0 0.059597001140147425 -0.00013749440765271938 0 0.059669576483341216 -0.00011173637316624563 0 0.05971421502418793 -0.00013455071434875424 0 0.059669576483341216 -0.00011173637316624563 0 0.05973228696600727 -0.00015627999127628621 0 0.05973228696600727 -0.00015627999127628621 0 0.059746250814919251 -0.00016492356175183887 0 0.059746186754597384 -0.00021580922255126425 0 0.053426111131035861 -0.0016403434760090038 0 0.0519963741389773 -0.0012956735977218692 0 0.059746250814919251 -0.00016492356175183887 0 0.059746186754597384 -0.00021580922255126425 0 0.059768584384311908 -0.0002731640639612856 0 0.059746186754597384 -0.00021580922255126425 0 0.059774226364142348 -0.00020630931669887037 0 0.059722952959039691 -0.00028988531853651214 0 0.059774226364142348 -0.00020630931669887037 0 0.059722952959039691 -0.00028988531853651214 0 0.05973574407924253 -0.00033316459292994261 0 0.05973228696600727 -0.00015627999127628621 0 0.059746186754597384 -0.00021580922255126425 0 0.059774226364142348 -0.00020630931669887037 0 0.059762820281440518 -0.00012563271184350182 0 0.05973228696600727 -0.00015627999127628621 0 0.059774226364142348 -0.00020630931669887037 0 0.059050404432521193 -0.0003933332139608788 0 0.058767952794434315 1.4920849886294802e-05 0 0.059127333417614079 -4.5078707153264681e-05 0 0.061702949977803435 -0.0011875064610401276 0 0.062099945356924563 -0.0018644541156027346 0 0.062367933083697986 -0.0012197060532842003 0 0.060842628952928857 -0.00071914074452314989 0 0.05957596671793066 -0.0013867370252672463 0 0.058767952794434315 1.4920849886294802e-05 0 0.059127333417614079 -4.5078707153264681e-05 0 0.058980255117952789 0.00016201218622737307 0 0.059050404432521193 -0.0003933332139608788 0 0.059127333417614079 -4.5078707153264681e-05 0 0.059368958988489942 -0.00023288742186331309 0 0.059127333417614079 -4.5078707153264681e-05 0 0.059368958988489942 -0.00023288742186331309 0 0.059367259444371073 -1.792623494482422e-05 0 0.059547088992215502 8.78305717079487e-05 0 0.059219313373984096 0.00023965259706559618 0 0.059236076624423144 0.00060316813926143882 0 0.053426111131035861 -0.0016403434760090038 0 0.052200364006784392 -0.0018337316417978806 0 0.059127333417614079 -4.5078707153264681e-05 0 0.059367259444371073 -1.792623494482422e-05 0 0.059219313373984096 0.00023965259706559618 0 0.059547088992215502 8.78305717079487e-05 0 0.059367259444371073 -1.792623494482422e-05 0 0.059219313373984096 0.00023965259706559618 0 0.059127333417614079 -4.5078707153264681e-05 0 0.059219313373984096 0.00023965259706559618 0 0.058980255117952789 0.00016201218622737307 0 0.059219313373984096 0.00023965259706559618 0 0.058980255117952789 0.00016201218622737307 0 0.058807579411799246 0.00044130358033035591 0 0.058767952794434315 1.4920849886294802e-05 0 0.058807579411799246 0.00044130358033035591 0 0.058503008444900584 0.00044546575507839779 0 0.058767952794434315 1.4920849886294802e-05 0 0.058980255117952789 0.00016201218622737307 0 0.058807579411799246 0.00044130358033035591 0 0.058807579411799246 0.00044130358033035591 0 0.058890632013408023 0.00075314305516057008 0 0.059236076624423144 0.00060316813926143882 0 0.058807579411799246 0.00044130358033035591 0 0.058890632013408023 0.00075314305516057008 0 0.058608997264749288 0.00079172089336398553 0 0.059219313373984096 0.00023965259706559618 0 0.058807579411799246 0.00044130358033035591 0 0.059236076624423144 0.00060316813926143882 0 0.052200364006784392 -0.0018337316417978806 0 0.048937737612418472 -0.0021360008648612476 0 0.05094672962385887 -0.0016375591003856026 0 0.051113283851307194 -0.0010153204607413792 0 0.050590569221055613 -0.001023656257593226 0 0.05094672962385887 -0.0016375591003856026 0 0.051113283851307194 -0.0010153204607413792 0 0.051208476862204623 -0.0016334572396355337 0 0.048990779470587213 -0.00082625206829199758 0 0.048937737612418472 -0.0021360008648612476 0 0.05890522519151551 0.0011815030389562039 0 0.058608997264749288 0.00079172089336398553 0 0.058448557889010974 0.0011833414481041604 0 0.058890632013408023 0.00075314305516057008 0 0.05890522519151551 0.0011815030389562039 0 0.058608997264749288 0.00079172089336398553 0 0.048937737612418472 -0.0021360008648612476 0 0.051812669718094791 -0.0019763007376367436 0 0.058890632013408023 0.00075314305516057008 0 0.059236076624423144 0.00060316813926143882 0 0.05890522519151551 0.0011815030389562039 0 0.051306248275537682 -0.0022505239078245511 0 0.05094672962385887 -0.0016375591003856026 0 0.051208476862204623 -0.0016334572396355337 0 0.059746186754597384 -0.00021580922255126425 0 0.059722952959039691 -0.00028988531853651214 0 0.059768584384311908 -0.0002731640639612856 0 0.059750434519150852 -0.00033107699021018427 0 0.059722952959039691 -0.00028988531853651214 0 0.059768584384311908 -0.0002731640639612856 0 0.048990779470587213 -0.00082625206829199758 0 0.0519963741389773 -0.0012956735977218692 0 0.059750434519150852 -0.00033107699021018427 0 0.059722952959039691 -0.00028988531853651214 0 0.059699971184118357 -0.00033513337920976335 0 0.059722952959039691 -0.00028988531853651214 0 0.059701248972617457 -0.00031236032233603874 0 0.059699971184118357 -0.00033513337920976335 0 0.059701248972617457 -0.00031236032233603874 0 0.059647297489142617 -0.00034591594050277491 0 0.059699971184118357 -0.00033513337920976335 0 0.059722952959039691 -0.00028988531853651214 0 0.059701248972617457 -0.00031236032233603874 0 0.05973574407924253 -0.00033316459292994261 0 0.059701248972617457 -0.00031236032233603874 0 0.0596937133892129 -0.00031379149009849575 0 0.05973574407924253 -0.00033316459292994261 0 0.058840954047643064 -0.0011510439650170483 0 0.055161845560805944 -0.0013637226064248105 0 0.057694458460209881 -0.00039568456561840291 0 0.044139780999724848 -0.0030775970958690801 0 0.044532748964477481 -0.001583656462248703 0 0.046288055059688762 -0.0019481791680155552 0 0.052564515616346098 0.001044133515685073 0 0.050889673332082837 8.0940095942218763e-05 0 0.052564515616346098 0.001044133515685073 0 0.052581851016228642 0.0010377742155806152 0 0.052564515616346098 0.001044133515685073 0 0.051144773617707438 -0.00032765740739265398 0 0.059701248972617457 -0.00031236032233603874 0 0.0596937133892129 -0.00031379149009849575 0 0.059668215840713065 -0.00032112415016809562 0 0.059701248972617457 -0.00031236032233603874 0 0.059668215840713065 -0.00032112415016809562 0 0.059647297489142617 -0.00034591594050277491 0 0.051144773617707438 -0.00032765740739265398 0 0.049600155870659982 -0.0013499566694705099 0 0.044532748964477481 -0.001583656462248703 0 0.045549130884368821 -0.0010341546654564599 0 0.044930341919520264 -5.1337717229066272e-05 0 0.045549130884368821 -0.0010341546654564599 0 0.046288055059688762 -0.0019481791680155552 0 0.046131295629840113 -1.4235866064110232e-05 0 0.046288055059688762 -0.0019481791680155552 0 0.047414838911927805 0.00023540009844142114 0 0.046131295629840113 -1.4235866064110232e-05 0 0.045549130884368821 -0.0010341546654564599 0 0.046131295629840113 -1.4235866064110232e-05 0 0.044930341919520264 -5.1337717229066272e-05 0 0.044532748964477481 -0.001583656462248703 0 0.045549130884368821 -0.0010341546654564599 0 0.046288055059688762 -0.0019481791680155552 0 0.049525472630730739 -3.5522598877883773e-07 0 0.050889673332082837 8.0940095942218763e-05 0 0.049517644062036521 -3.3286848434659835e-06 0 0.046288055059688762 -0.0019481791680155552 0 0.047414838911927805 0.00023540009844142114 0 0.049529511271546089 -5.2530958940279812e-06 0 0.055161845560805944 -0.0013637226064248105 0 0.053297656177868288 9.4016147457270557e-07 0 0.055161845560805944 -0.0013637226064248105 0 0.057694458460209881 -0.00039568456561840291 0 0.053297656177868288 9.4016147457270557e-07 0 0.057694458460209881 -0.00039568456561840291 0 0.053297656177868288 9.4016147457270557e-07 0 0.057958829633721627 0.00012506204080870386 0 0.058322105162441837 4.8085819235790222e-07 0 0.053297656177868288 9.4016147457270557e-07 0 0.057958829633721627 0.00012506204080870386 0 0.057694458460209881 -0.00039568456561840291 0 0.057958829633721627 0.00012506204080870386 0 0.05930703911797941 -4.6900277555114283e-05 0 0.060995987430585555 -0.00015412009295833821 0 0.057958829633721627 0.00012506204080870386 0 0.05930703911797941 -4.6900277555114283e-05 0 0.060995987430585555 -0.00015412009295833821 0 0.05930703911797941 -4.6900277555114283e-05 0 0.059867541813249978 -2.0168251341927079e-05 0 0.05930703911797941 -4.6900277555114283e-05 0 0.059867541813249978 -2.0168251341927079e-05 0 0.059318402646663979 -0.00026274559064477039 0 0.059867541813249978 -2.0168251341927079e-05 0 0.05973574407924253 -0.00033316459292994261 0 0.059318402646663979 -0.00026274559064477039 0 0.059774226364142348 -0.00020630931669887037 0 0.059867541813249978 -2.0168251341927079e-05 0 0.05973574407924253 -0.00033316459292994261 0 0.058916536768728274 -0.0010956051143735451 0 0.05973574407924253 -0.00033316459292994261 0 0.058952919724607859 -0.00090563853481755348 0 0.05973574407924253 -0.00033316459292994261 0 0.058952919724607859 -0.00090563853481755348 0 0.059318402646663979 -0.00026274559064477039 0 0.052564515616346098 0.001044133515685073 0 0.054298764878512554 0.0014712366750199181 0 0.057694458460209881 -0.00039568456561840291 0 0.058952919724607859 -0.00090563853481755348 0 0.059318402646663979 -0.00026274559064477039 0 0.058840954047643064 -0.0011510439650170483 0 0.057694458460209881 -0.00039568456561840291 0 0.058952919724607859 -0.00090563853481755348 0 0.057694458460209881 -0.00039568456561840291 0 0.05930703911797941 -4.6900277555114283e-05 0 0.059318402646663979 -0.00026274559064477039 0 0.05988057398630417 -0.00066621672455189924 0 0.057046275764702496 -0.002392680248321889 0 0.064587978493620662 0.00067201748864260046 0 0.06467956349379167 0.0028393579612261345 0 0.063523535984000165 0.0010909256086645675 0 0.064879145967268514 -0.00019589086719974856 0 0.064921421258949466 -0.00014977428436274497 0 0.064930790355145013 -0.00025618104362766243 0 0.064879145967268514 -0.00019589086719974856 0 0.0648678922574807 -0.00028526945963072437 0 0.064930790355145013 -0.00025618104362766243 0 0.064879145967268514 -0.00019589086719974856 0 0.06482047614062833 -0.00027853064170474368 0 0.0648678922574807 -0.00028526945963072437 0 0.064879145967268514 -0.00019589086719974856 0 0.064887751678007866 -0.00010613578583426436 0 0.06489628884391048 -9.914636984625562e-05 0 0.064879145967268514 -0.00019589086719974856 0 0.064887751678007866 -0.00010613578583426436 0 0.064921421258949466 -0.00014977428436274497 0 0.05988057398630417 -0.00066621672455189924 0 0.060732866803522932 -0.00048557559274630655 0 0.064887751678007866 -0.00010613578583426436 0 0.064921421258949466 -0.00014977428436274497 0 0.0648018119167659 -0.00010080485146116917 0 0.064587978493620662 0.00067201748864260046 0 0.0648018119167659 -0.00010080485146116917 0 0.063648830117450303 -7.6421597263666454e-05 0 0.0648018119167659 -0.00010080485146116917 0 0.064999823840167642 -2.102421128935801e-07 0 0.064923861560218413 -6.4415972857457705e-05 0 0.0648018119167659 -0.00010080485146116917 0 0.064999823840167642 -2.102421128935801e-07 0 0.06447987092158329 -0.00012603725033807529 0 0.064999823840167642 -2.102421128935801e-07 0 0.064923861560218413 -6.4415972857457705e-05 0 0.064999869615318298 9.0999144225925107e-09 0 0.064887751678007866 -0.00010613578583426436 0 0.0648018119167659 -0.00010080485146116917 0 0.064923861560218413 -6.4415972857457705e-05 0 0.064887751678007866 -0.00010613578583426436 0 0.064923861560218413 -6.4415972857457705e-05 0 0.06489628884391048 -9.914636984625562e-05 0 0.06489628884391048 -9.914636984625562e-05 0 0.064932489199257259 -1.8153327509467714e-05 0 0.064869918033221494 -7.4804884923469447e-05 0 0.064923861560218413 -6.4415972857457705e-05 0 0.06489628884391048 -9.914636984625562e-05 0 0.064932489199257259 -1.8153327509467714e-05 0 0.064999869615318298 9.0999144225925107e-09 0 0.064932489199257259 -1.8153327509467714e-05 0 0.06499986328142536 -1.7653010327652255e-08 0 0.064923861560218413 -6.4415972857457705e-05 0 0.064999869615318298 9.0999144225925107e-09 0 0.064932489199257259 -1.8153327509467714e-05 0 0.064932489199257259 -1.8153327509467714e-05 0 0.06499986328142536 -1.7653010327652255e-08 0 0.064900906434320407 1.8564005949799034e-05 0 0.064900906434320407 1.8564005949799034e-05 0 0.064869918033221494 -7.4804884923469447e-05 0 0.064709612220153256 -6.284669659156148e-05 0 0.064932489199257259 -1.8153327509467714e-05 0 0.064900906434320407 1.8564005949799034e-05 0 0.064869918033221494 -7.4804884923469447e-05 0 0.064869918033221494 -7.4804884923469447e-05 0 0.06475678679249236 -0.00017441254687880581 0 0.064709612220153256 -6.284669659156148e-05 0 0.06475678679249236 -0.00017441254687880581 0 0.064747574533840724 -0.00026840628145958573 0 0.064657009308850655 -0.00026136537610374304 0 0.06475678679249236 -0.00017441254687880581 0 0.064842383495296876 -0.00018071536096794509 0 0.064747574533840724 -0.00026840628145958573 0 0.064869918033221494 -7.4804884923469447e-05 0 0.06475678679249236 -0.000174412546878805