<?xml version="1.0"?>
<VTKFile type="UnstructuredGrid" version="0.1" byte_order="LittleEndian">
<UnstructuredGrid>
<Piece NumberOfPoints="30881" NumberOfCells="10862">
<Points>
<DataArray type="Float64" NumberOfComponents="3" format="ascii">
-0.49999999999999828 -0.48677703703187492 0 -0.5 -0.5 0 -0.48129281494584059 -0.49338851851593718 0 -0.5 -0.5 0 -0.48129281494584059 -0.49338851851593718 0 -0.46258562989168328 -0.5 0 -0.49999999999999828 -0.48677703703187492 0 -0.48129281494584059 -0.49338851851593718 0 -0.49999999999999828 -0.48677703703187492 0 -0.4824545428279598 -0.47451624516148783 0 -0.48129281494584059 -0.49338851851593718 0 -0.49999999999999828 -0.48677703703187492 0 -0.4824545428279598 -0.47451624516148783 0 -0.5 -0.46599539173150673 0 -0.4824545428279598 -0.47451624516148783 0 -0.46853075243710779 -0.48354990242643758 0 -0.46411508256092049 -0.46598235294430129 0 -0.4824545428279598 -0.47451624516148783 0 -0.48129281494584059 -0.49338851851593718 0 -0.46853075243710779 -0.48354990242643758 0 -0.48129281494584059 -0.49338851851593718 0 -0.46258562989168328 -0.5 0 -0.48129281494584059 -0.49338851851593718 0 -0.46258562989168328 -0.5 0 -0.46853075243710779 -0.48354990242643758 0 -0.46258562989168328 -0.5 0 -0.46853075243710779 -0.48354990242643758 0 -0.45147378687733691 -0.48362213557840178 0 -0.46853075243710779 -0.48354990242643758 0 -0.45147378687733691 -0.48362213557840178 0 -0.46411508256092049 -0.46598235294430129 0 -0.4457251648104853 -0.47020164095208389 0 -0.45147378687733691 -0.48362213557840178 0 -0.46411508256092049 -0.46598235294430129 0 -0.4457251648104853 -0.47020164095208389 0 -0.45147378687733691 -0.48362213557840178 0 -0.43513446131126993 -0.48199891714758791 0 -0.45147378687733691 -0.48362213557840178 0 -0.43275163025255442 -0.5 0 -0.43513446131126993 -0.48199891714758791 0 -0.46258562989168328 -0.5 0 -0.45147378687733691 -0.48362213557840178 0 -0.43275163025255442 -0.5 0 -0.4467190029717853 -0.45478934699519452 0 -0.4422915115958943 -0.43555510214664611 0 -0.43246707723660932 -0.44794326854796312 0 -0.4457251648104853 -0.47020164095208389 0 -0.4467190029717853 -0.45478934699519452 0 -0.46411508256092049 -0.46598235294430129 0 -0.4457251648104853 -0.47020164095208389 0 -0.4467190029717853 -0.45478934699519452 0 -0.43016578207734568 -0.46313500011938619 0 -0.4467190029717853 -0.45478934699519452 0 -0.46411508256092049 -0.46598235294430129 0 -0.47114575579794699 -0.4403844242888923 0 -0.4467190029717853 -0.45478934699519452 0 -0.47114575579794699 -0.4403844242888923 0 -0.4422915115958943 -0.43555510214664611 0 -0.47114575579794699 -0.4403844242888923 0 -0.4422915115958943 -0.43555510214664611 0 -0.46411508256092049 -0.46598235294430129 0 -0.47114575579794699 -0.4403844242888923 0 -0.48354307623736548 -0.45841843211146538 0 -0.4824545428279598 -0.47451624516148783 0 -0.46411508256092049 -0.46598235294430129 0 -0.48354307623736548 -0.45841843211146538 0 -0.4824545428279598 -0.47451624516148783 0 -0.48354307623736548 -0.45841843211146538 0 -0.5 -0.46599539173150673 0 -0.48354307623736548 -0.45841843211146538 0 -0.5 -0.46599539173150673 0 -0.49999999999999972 -0.44521374643113848 0 -0.47114575579794699 -0.4403844242888923 0 -0.49999999999999972 -0.44521374643113848 0 -0.47114575579794699 -0.4403844242888923 0 -0.49999999999999972 -0.44521374643113848 0 -0.48704432221743971 -0.42935617662229603 0 -0.47114575579794699 -0.4403844242888923 0 -0.48354307623736548 -0.45841843211146538 0 -0.49999999999999972 -0.44521374643113848 0 -0.49999999999999972 -0.44521374643113848 0 -0.48704432221743971 -0.42935617662229603 0 -0.5 -0.41591957503128979 0 -0.48704432221743971 -0.42935617662229603 0 -0.5 -0.41591957503128979 0 -0.47703153307181151 -0.41590696073786332 0 -0.5 -0.41591957503128979 0 -0.47703153307181151 -0.41590696073786332 0 -0.48817838912021821 -0.4022119694541284 0 -0.47114575579794699 -0.4403844242888923 0 -0.48704432221743971 -0.42935617662229603 0 -0.47703153307181151 -0.41590696073786332 0 -0.5 -0.38662540363144121 0 -0.47568202340906118 -0.39039593841591919 0 -0.4947615751445838 -0.37332156409002909 0 -0.47568202340906118 -0.39039593841591919 0 -0.4947615751445838 -0.37332156409002909 0 -0.5 -0.38662540363144121 0 -0.48817838912021821 -0.4022119694541284 0 -0.47568202340906118 -0.39039593841591919 0 -0.5 -0.41591957503128979 0 -0.5 -0.38662540363144121 0 -0.48817838912021821 -0.4022119694541284 0 -0.47703153307181151 -0.41590696073786332 0 -0.48817838912021821 -0.4022119694541284 0 -0.47568202340906118 -0.39039593841591919 0 -0.47703153307181151 -0.41590696073786332 0 -0.47568202340906118 -0.39039593841591919 0 -0.45660247167353862 -0.40747031274180939 0 -0.47568202340906118 -0.39039593841591919 0 -0.48030931097003587 -0.37191064435083931 0 -0.46669490250066459 -0.37481721741951951 0 -0.47568202340906118 -0.39039593841591919 0 -0.4947615751445838 -0.37332156409002909 0 -0.48030931097003587 -0.37191064435083931 0 -0.45332061783919553 -0.38729481725706361 0 -0.46669490250066459 -0.37481721741951951 0 -0.45095991715087752 -0.36968037302039969 0 -0.47568202340906118 -0.39039593841591919 0 -0.45332061783919553 -0.38729481725706361 0 -0.46669490250066459 -0.37481721741951951 0 -0.47568202340906118 -0.39039593841591919 0 -0.45660247167353862 -0.40747031274180939 0 -0.47568202340906118 -0.39039593841591919 0 -0.45332061783919553 -0.38729481725706361 0 -0.45660247167353862 -0.40747031274180939 0 -0.44332653075004852 -0.401690115615219 0 -0.44646247228389868 -0.41654464256061052 0 -0.42870657106664078 -0.39987574649354879 0 -0.45332061783919553 -0.38729481725706361 0 -0.44332653075004852 -0.401690115615219 0 -0.43479631603355468 -0.39077639303142497 0 -0.45332061783919553 -0.38729481725706361 0 -0.44332653075004852 -0.401690115615219 0 -0.45660247167353862 -0.40747031274180939 0 -0.45332061783919553 -0.38729481725706361 0 -0.43421362475025049 -0.37527491429266319 0 -0.43479631603355468 -0.39077639303142497 0 -0.45332061783919553 -0.38729481725706361 0 -0.43421362475025049 -0.37527491429266319 0 -0.45095991715087752 -0.36968037302039969 0 -0.47114575579794699 -0.4403844242888923 0 -0.45663439814062529 -0.42533932462455271 0 -0.4422915115958943 -0.43555510214664611 0 -0.47114575579794699 -0.4403844242888923 0 -0.47703153307181151 -0.41590696073786332 0 -0.45663439814062529 -0.42533932462455271 0 -0.45663439814062529 -0.42533932462455271 0 -0.45660247167353862 -0.40747031274180939 0 -0.44646247228389868 -0.41654464256061052 0 -0.47703153307181151 -0.41590696073786332 0 -0.45663439814062529 -0.42533932462455271 0 -0.45660247167353862 -0.40747031274180939 0 -0.44332653075004852 -0.401690115615219 0 -0.45660247167353862 -0.40747031274180939 0 -0.44646247228389868 -0.41654464256061052 0 -0.45660247167353862 -0.40747031274180939 0 -0.44646247228389868 -0.41654464256061052 0 -0.44646247228389868 -0.41654464256061052 0 -0.4375229199380159 -0.42454468706769971 0 -0.45663439814062529 -0.42533932462455271 0 -0.4375229199380159 -0.42454468706769971 0 -0.4422915115958943 -0.43555510214664611 0 -0.45663439814062529 -0.42533932462455271 0 -0.44646247228389868 -0.41654464256061052 0 -0.4375229199380159 -0.42454468706769971 0 -0.4375229199380159 -0.42454468706769971 0 -0.4422915115958943 -0.43555510214664611 0 -0.43077617074680319 -0.43406335077952207 0 -0.43077617074680319 -0.43406335077952207 0 -0.42550232634077589 -0.42345940056268039 0 -0.41950844772475421 -0.43888456563633732 0 -0.4375229199380159 -0.42454468706769971 0 -0.43077617074680319 -0.43406335077952207 0 -0.42550232634077589 -0.42345940056268039 0 -0.44646247228389868 -0.41654464256061052 0 -0.41657232816672918 -0.41306671883907142 0 -0.42870657106664078 -0.39987574649354879 0 -0.44646247228389868 -0.41654464256061052 0 -0.4375229199380159 -0.42454468706769971 0 -0.42550232634077589 -0.42345940056268039 0 -0.44646247228389868 -0.41654464256061052 0 -0.42550232634077589 -0.42345940056268039 0 -0.41657232816672918 -0.41306671883907142 0 -0.44646247228389868 -0.41654464256061052 0 -0.41657232816672918 -0.41306671883907142 0 -0.42550232634077589 -0.42345940056268039 0 -0.41657232816672918 -0.41306671883907142 0 -0.41333489101611293 -0.42699700567040988 0 -0.41657232816672918 -0.41306671883907142 0 -0.41333489101611293 -0.42699700567040988 0 -0.39893236021425188 -0.42931692235905211 0 -0.41333489101611293 -0.42699700567040988 0 -0.39893236021425188 -0.42931692235905211 0 -0.41950844772475421 -0.43888456563633732 0 -0.42550232634077589 -0.42345940056268039 0 -0.41333489101611293 -0.42699700567040988 0 -0.41950844772475421 -0.43888456563633732 0 -0.43421362475025049 -0.37527491429266319 0 -0.42478231784314502 -0.38643128255249681 0 -0.41656514696884139 -0.37636588688318029 0 -0.43421362475025049 -0.37527491429266319 0 -0.42478231784314502 -0.38643128255249681 0 -0.43479631603355468 -0.39077639303142497 0 -0.42478231784314502 -0.38643128255249681 0 -0.43479631603355468 -0.39077639303142497 0 -0.42870657106664078 -0.39987574649354879 0 -0.44332653075004852 -0.401690115615219 0 -0.43479631603355468 -0.39077639303142497 0 -0.42870657106664078 -0.39987574649354879 0 -0.41657232816672918 -0.41306671883907142 0 -0.40962993039643741 -0.3898634720616666 0 -0.3946356370269814 -0.39577424904278191 0 -0.42478231784314502 -0.38643128255249681 0 -0.42870657106664078 -0.39987574649354879 0 -0.40962993039643741 -0.3898634720616666 0 -0.41657232816672918 -0.41306671883907142 0 -0.42870657106664078 -0.39987574649354879 0 -0.40962993039643741 -0.3898634720616666 0 -0.42478231784314502 -0.38643128255249681 0 -0.40962993039643741 -0.3898634720616666 0 -0.41656514696884139 -0.37636588688318029 0 -0.40962993039643741 -0.3898634720616666 0 -0.41656514696884139 -0.37636588688318029 0 -0.40465459864295228 -0.37650109000307358 0 -0.39431275766669582 -0.38061373190328529 0 -0.40465459864295228 -0.37650109000307358 0 -0.3968495855878465 -0.36923685638487008 0 -0.40962993039643741 -0.3898634720616666 0 -0.39431275766669582 -0.38061373190328529 0 -0.40465459864295228 -0.376501090003
[...]
<PointData Scalars="" Vectors="displacement," Tensors="">
<DataArray type="Float64" Name="displacement" NumberOfComponents="3" format="ascii">
1.4603840922419657e-06 -0.10223231167959715 0 -9.7390016752626472e-07 -0.10499413985685116 0 4.7448154757250761e-07 -0.10491653934471307 0 -9.7390016752626472e-07 -0.10499413985685116 0 4.7448154757250761e-07 -0.10491653934471307 0 4.8315442690570199e-07 -0.10500258050170223 0 3.3342512396261677e-07 -0.10222533704178843 0 -1.0996662440245141e-05 -0.10353984002015337 0 -4.168453118503762e-07 -0.10221675658553896 0 -0.00056443551062901581 -0.10064130372261791 0 -0.00053403208157126183 -0.10165981536929439 0 -4.168453118503762e-07 -0.10221675658553896 0 -0.00056443551062901581 -0.10064130372261791 0 -3.0808361338240427e-06 -0.09786005537545428 0 -0.00056443551062901581 -0.10064130372261791 0 -0.00034232651181434709 -0.10272579590632004 0 -0.00047560761473150481 -0.10199491738081939 0 -0.00056443551062901581 -0.10064130372261791 0 -0.00053403208157126183 -0.10165981536929439 0 -0.00034232651181434709 -0.10272579590632004 0 -1.0996662440245141e-05 -0.10353984002015337 0 -4.9652593947999663e-07 -0.10499752689683323 0 -0.00053403208157126183 -0.10165981536929439 0 -3.5959775235469536e-06 -0.104992904131694 0 -0.00034232651181434709 -0.10272579590632004 0 -3.5959775235469536e-06 -0.104992904131694 0 -0.00034232651181434709 -0.10272579590632004 0 -0.00034106635315480727 -0.10366209658747243 0 -0.00034232651181434709 -0.10272579590632004 0 -0.00034106635315480727 -0.10366209658747243 0 -0.00047560761473150481 -0.10199491738081939 0 -0.00053135939562311903 -0.10285660249921524 0 -0.00034106635315480727 -0.10366209658747243 0 -0.00047560761473150481 -0.10199491738081939 0 -0.00053135939562311903 -0.10285660249921524 0 -0.00034106635315480727 -0.10366209658747243 0 -0.00026548858256421451 -0.10371805891370152 0 -0.00034106635315480727 -0.10366209658747243 0 9.1635075598947542e-07 -0.10499851165418547 0 -0.00026548858256421451 -0.10371805891370152 0 -3.5959775235469536e-06 -0.104992904131694 0 -0.00034106635315480727 -0.10366209658747243 0 9.1635075598947542e-07 -0.10499851165418547 0 -0.00066502203009186306 -0.10187686815273671 0 -0.0021288572160549309 -0.1001482710535012 0 -0.0014388434011664798 -0.10150079968707125 0 -0.00053135939562311903 -0.10285660249921524 0 -0.00066502203009186306 -0.10187686815273671 0 -0.00047560761473150481 -0.10199491738081939 0 -0.00053135939562311903 -0.10285660249921524 0 -0.00066502203009186306 -0.10187686815273671 0 -0.00083768865874624067 -0.10248619496799029 0 -0.00066502203009186306 -0.10187686815273671 0 -0.00047560761473150481 -0.10199491738081939 0 0.00078192985747250576 -0.10128969278045341 0 -0.00066502203009186306 -0.10187686815273671 0 0.00078192985747250576 -0.10128969278045341 0 -0.0021288572160549309 -0.1001482710535012 0 -0.00045255132984463992 -0.095994625598312178 0 -0.0006564662872357484 -0.097624428220356427 0 -0.00047560761473150481 -0.10199491738081939 0 0.00078192985747250576 -0.10128969278045341 0 -0.00052263237024569183 -0.099119388140320022 0 -0.00056443551062901581 -0.10064130372261791 0 -0.00047560761473150481 -0.10199491738081939 0 -0.00052263237024569183 -0.099119388140320022 0 -0.00056443551062901581 -0.10064130372261791 0 -0.00052263237024569183 -0.099119388140320022 0 -3.0808361338240427e-06 -0.09786005537545428 0 -0.00052263237024569183 -0.099119388140320022 0 -3.0808361338240427e-06 -0.09786005537545428 0 5.8141490170402139e-06 -0.093504884790679241 0 -0.00045255132984463992 -0.095994625598312178 0 -1.127988506964346e-06 -0.093497466740534871 0 -0.0024788228645216469 -0.090600090129761071 0 -6.9841061622044978e-07 -0.093484714062708668 0 -0.0010134831599665512 -0.090132284740715343 0 0.00078192985747250576 -0.10128969278045341 0 -0.00052263237024569183 -0.099119388140320022 0 5.8141490170402139e-06 -0.093504884790679241 0 -6.9841061622044978e-07 -0.093484714062708668 0 -0.0010134831599665512 -0.090132284740715343 0 -2.6206311034176239e-06 -0.087346752865754176 0 -0.0010134831599665512 -0.090132284740715343 0 -2.6206311034176239e-06 -0.087346752865754176 0 -9.8674958933212049e-05 -0.089445697033423838 0 -2.6206311034176239e-06 -0.087346752865754176 0 -9.8674958933212049e-05 -0.089445697033423838 0 0.00024525731002051536 -0.086193953672505069 0 -0.0024788228645216469 -0.090600090129761071 0 -0.0010134831599665512 -0.090132284740715343 0 -9.8674958933212049e-05 -0.089445697033423838 0 4.5978115372060273e-06 -0.081190958978563307 0 0.0019668020918233559 -0.087477823426794804 0 0.00070950824463701418 -0.077944125570249573 0 -0.00011250492008642402 -0.082598479086142318 0 -5.6253963688082748e-05 -0.081868473302955783 0 4.5978115372060273e-06 -0.081190958978563307 0 0.00024525731002051536 -0.086193953672505069 0 0.0019668020918233559 -0.087477823426794804 0 -2.6206311034176239e-06 -0.087346752865754176 0 4.5978115372060273e-06 -0.081190958978563307 0 0.00024525731002051536 -0.086193953672505069 0 -9.8674958933212049e-05 -0.089445697033423838 0 0.00024525731002051536 -0.086193953672505069 0 0.0019668020918233559 -0.087477823426794804 0 -9.8674958933212049e-05 -0.089445697033423838 0 0.0019668020918233559 -0.087477823426794804 0 0.0019100246999633949 -0.093524500362146448 0 0.00070817793516136419 -0.071488116905976187 0 0.00036915012116323418 -0.073071331014651048 0 0.00050458094662448271 -0.071743661973266815 0 0.00070817793516136419 -0.071488116905976187 0 0.00070950824463701418 -0.077944125570249573 0 0.00036915012116323418 -0.073071331014651048 0 -0.00061774585586616857 -0.072620170075940779 0 0.00050458094662448271 -0.071743661973266815 0 0.00070937231838645522 -0.072550199015710234 0 0.00070817793516136419 -0.071488116905976187 0 -0.00061774585586616857 -0.072620170075940779 0 0.00050458094662448271 -0.071743661973266815 0 -0.00011250492008642402 -0.082598479086142318 0 -0.00085289422623836245 -0.085062932232057978 0 0.00070817793516136419 -0.071488116905976187 0 -0.00061774585586616857 -0.072620170075940779 0 -0.0033942217094691477 -0.072259049117204363 0 -0.0030899960967030082 -0.074056765338143871 0 -0.005494063044590082 -0.073550556190949981 0 -0.0033855376736358642 -0.076472644021725003 0 -0.00061774585586616857 -0.072620170075940779 0 -0.0030899960967030082 -0.074056765338143871 0 -0.0016070762019552568 -0.075275616219022332 0 -0.00061774585586616857 -0.072620170075940779 0 -0.0030899960967030082 -0.074056765338143871 0 -0.0033942217094691477 -0.072259049117204363 0 -0.00061774585586616857 -0.072620170075940779 0 0.00052255154885198101 -0.074984553084858199 0 -0.0016070762019552568 -0.075275616219022332 0 -0.00061774585586616857 -0.072620170075940779 0 0.00052255154885198101 -0.074984553084858199 0 0.00070937231838645522 -0.072550199015710234 0 -0.0024788228645216469 -0.090600090129761071 0 -0.00042961867646559523 -0.094608817898136743 0 -0.0021288572160549309 -0.1001482710535012 0 -0.0024788228645216469 -0.090600090129761071 0 -9.8674958933212049e-05 -0.089445697033423838 0 -0.00042961867646559523 -0.094608817898136743 0 -0.00042961867646559523 -0.094608817898136743 0 0.0019100246999633949 -0.093524500362146448 0 0.001180990977481994 -0.097128795433992915 0 -9.8674958933212049e-05 -0.089445697033423838 0 -0.00042961867646559523 -0.094608817898136743 0 0.0019100246999633949 -0.093524500362146448 0 -0.0030899960967030082 -0.074056765338143871 0 -0.0033942217094691477 -0.072259049117204363 0 -0.005494063044590082 -0.073550556190949981 0 -0.00085289422623836245 -0.085062932232057978 0 -0.0012973657236789364 -0.086851452821750358 0 -0.0012973657236789364 -0.086851452821750358 0 -0.0022055354413123931 -0.088638524490902509 0 -0.00042961867646559523 -0.094608817898136743 0 -0.00098301934947569872 -0.10057934929554929 0 -0.0021288572160549309 -0.1001482710535012 0 -0.00042961867646559523 -0.094608817898136743 0 0.001180990977481994 -0.097128795433992915 0 -0.00098301934947569872 -0.10057934929554929 0 -0.00098301934947569872 -0.10057934929554929 0 -0.0021288572160549309 -0.1001482710535012 0 -0.0017255271017361789 -0.10111778017423795 0 -0.0017255271017361789 -0.10111778017423795 0 -0.0016450019585574815 -0.10107004848743796 0 -0.0017460584178878059 -0.10145210740982689 0 -0.00098301934947569872 -0.10057934929554929 0 -0.0017255271017361789 -0.10111778017423795 0 -0.0016450019585574815 -0.10107004848743796 0 -0.005494063044590082 -0.073550556190949981 0 -0.006452064625547543 -0.07890947296944964 0 -0.0033855376736358642 -0.076472644021725003 0 -0.0007075081498476056 -0.1004072585607223 0 -0.00098301934947569872 -0.10057934929554929 0 -0.0016450019585574815 -0.10107004848743796 0 -0.0007075081498476056 -0.1004072585607223 0 -0.0016450019585574815 -0.10107004848743796 0 -0.0021852293389396423 -0.10126332785488126 0 -0.0012973657236789364 -0.086851452821750358 0 -0.0031664376013733654 -0.089967948675573478 0 -0.0016450019585574815 -0.10107004848743796 0 -0.0021852293389396423 -0.10126332785488126 0 -0.0020246950370920399 -0.10115942285017622 0 -0.0021852293389396423 -0.10126332785488126 0 -0.0020246950370920399 -0.10115942285017622 0 -0.0023640274232391788 -0.1007225430533745 0 -0.0020246950370920399 -0.10115942285017622 0 -0.0023640274232391788 -0.1007225430533745 0 -0.0017460584178878059 -0.10145210740982689 0 -0.0016450019585574815 -0.10107004848743796 0 -0.0020246950370920399 -0.10115942285017622 0 -0.0017460584178878059 -0.10145210740982689 0 0.00052255154885198101 -0.074984553084858199 0 -0.0010250881615484059 -0.07706464384783214 0 0.00076316414528857402 -0.078537376789780858 0 0.00052255154885198101 -0.074984553084858199 0 -0.0010250881615484059 -0.07706464384783214 0 -0.0016070762019552568 -0.075275616219022332 0 -0.0010250881615484059 -0.07706464384783214 0 -0.0016070762019552568 -0.075275616219022332 0 -0.0033855376736358642 -0.076472644021725003 0 -0.0030899960967030082 -0.074056765338143871 0 -0.0016070762019552568 -0.075275616219022332 0 -0.0033855376736358642 -0.076472644021725003 0 -0.006452064625547543 -0.07890947296944964 0 -0.0017483522678986691 -0.080518231027836201 0 -0.0031370332342802172 -0.084574193759411012 0 -0.0010250881615484059 -0.07706464384783214 0 -0.0033855376736358642 -0.076472644021725003 0 -0.0017483522678986691 -0.080518231027836201 0 -0.006452064625547543 -0.07890947296944964 0 -0.0033855376736358642 -0.076472644021725003 0 -0.0017483522678986691 -0.080518231027836201 0 -0.0010250881615484059 -0.07706464384783214 0 -0.0017483522678986691 -0.080518231027836201 0 0.00076316414528857402 -0.078537376789780858 0 -0.0017483522678986691 -0.080518231027836201 0 0.00076316414528857402 -0.078537376789780858 0 0.0011021210411741422 -0.081719994719227057 0 0.00039477825527267326 -0.084661848559248604 0 0.0011021210411741422 -0.081719994719227057 0 0.0030705490407809109 -0.083957654244558214 0 -0.0017483522678986691 -0.080518231027836201 0 0.00039477825527267326 -0.084661848559248604 0 0.0011021210411741422 -0.081719994719227057 0 -0.0017483522678986691 -0.080518231027836201 0 0.00039477825527267326 -0.084661848559248604 0 -0.0031370332342802172 -0.084574193759411012 0 -0.0031370332342802172 -0.084574193759411012 0 -0.0069018751639791671 -0.086742303126383605 0 -0.0030274298696649229 -0.090599487310472418 0 -0.0031370332342802172 -0.084574193759411012 0 0.0006759627075761536 -0.090254159802181058 0 -0.0030274298696649229 -0.090599487310472418 0 0.00039477825527267326 -0.084661848559248604 0 -0.0031370332342802172 -0.084574193759411012 0 0.0006759627075761536 -0.090254159802181058 0 0.00039477825527267326 -0.084661848559248604 0 0.0006759627075761536 -0.090254159802181058 0 0.0030155870890062686 -0.08721938387763857 0 -0.0021852293389396423 -0.10126332785488126 0 -0.0023640274232391788 -0.1007225430533745 0 -0.0039680775220935398 -0.099976211356638464 0 -0.006452064625547543 -0.07890947296944964 0 -0.0031370332342802172 -0.084574193759411012 0 -0.0069018751639791671 -0.086742303126383605 0 -0.0031664376013733654 -0.089967948675573478 0 -0.0041233154140959266 -0.092745861295795123 0 -0.0039680775220935398 -0.099976211356638464 0 -0.0028727972988534713 -0.099432190472351814 0 -0.0037034391078922639 -0.0975166551996383 0 -0.0028727972988534713 -0.099432190472351814 0 -0.0019003069137891702 -0.099796547744589528 0 -0.0027951124032139143 -0.098281498387609273 0 -0.0023640274232391788 -0.1007225430533745 0 -0.0028727972988534713 -0.099432190472351814 0 -0.0019003069137891702 -0.099796547744589528 0 -0.0023640274232391788 -0.1007225430533745 0 -0.0039680775220935398 -0.099976211356638464 0 -0.0028727972988534713 -0.099432190472351814 0 -0.0019003069137891702 -0.099796547744589528 0 -0.0014878737256585018 -0.10129999793673479 0 -0.00090461534507180826 -0.10053495866639417 0 -0.0023640274232391788 -0.1007225430533745 0 -0.0019003069137891702 -0.099796547744589528 0 -0.0014878737256585018 -0.10129999793673479 0 -0.0014878737256585018 -0.10129999793673479 0 -0.00090461534507180826 -0.10053495866639417 0 -0.00059712619826705947 -0.10178339471898304 0 -0.0019003069137891702 -0.099796547744589528 0 -0.00090461534507180826 -0.10053495866639417 0 -0.0010438777293497574 -0.099201892745178349 0 -0.00090461534507180826 -0.10053495866639417 0 5.1475979448490436e-05 -0.099843553913689528 0 -0.0010438777293497574 -0.099201892745178349 0 5.1475979448490436e-05 -0.099843553913689528 0 0.0013646511473259049 -0.10094754047463575 0 -0.0001296108806633413 -0.10111382740761343 0 -0.00090461534507180826 -0.10053495866639417 0 5.1475979448490436e-05 -0.099843553913689528 0 -0.0001296108806633413 -0.10111382740761343 0 3.0829691145552647e-05 -0.10332185170473411 0 -0.00032727067270128758 -0.10416567029807368 0 6.0651964263123165e-05 -0.10510050755699532 0 -4.5269291729212173e-09 -0.10499816292042422 0 1.112000628898537e-07 -0.10500121691422454 0 6.0651964263123165e-05 -0.10510050755699532 0 -2.33423130938456e-05 -0.10499076159918663 0 1.112000628898537e-07 -0.10500121691422454 0 5.1475979448490436e-05 -0.099843553913689528 0 0.0013646511473259049 -0.10094754047463575 0 0.001497031496481701 -0.099040758001992954 0 3.0829691145552647e-05 -0.10332185170473411 0 0.00010145858399012371 -0.10339784701384322 0 0.0013646511473259049 -0.10094754047463575 0 -0.0001296108806633413 -0.10111382740761343 0 -1.0841229695429787e-06 -0.10238813060509169 0 6.0651964263123165e-05 -0.10510050755699532 0 -4.5269291729212173e-09 -0.10499816292042422 0 0.00033404581625597627 -0.10419791828752502 0 0.0013646511473259049 -0.10094754047463575 0 -1.0841229695429787e-06 -0.10238813060509169 0 0.00033404581625597627 -0.10419791828752502 0 -0.00090461534507180826 -0.10053495866639417 0 -0.0001296108806633413 -0.10111382740761343 0 -0.00059712619826705947 -0.10178339471898304 0 -0.0001296108806633413 -0.10111382740761343 0 -1.0841229695429787e-06 -0.10238813060509169 0 -0.00059712619826705947 -0.10178339471898304 0 -0.00059712619826705947 -0.10178339471898304 0 -0.00040323696454222838 -0.10308595821610454 0 -0.00098639311427960868 -0.10216091822244149 0 -1.0841229695429787e-06 -0.10238813060509169 0 -0.00040323696454222838 -0.10308595821610454 0 0.00033404581625597627 -0.10419791828752502 0 -1.0841229695429787e-06 -0.10238813060509169 0 -0.00059712619826705947 -0.10178339471898304 0 -0.00040323696454222838 -0.10308595821610454 0 -0.00040323696454222838 -0.10308595821610454 0 0.00033404581625597627 -0.10419791828752502 0 -4.2956793333916925e-05 -0.10403172226816129 0 -4.5269291729212173e-09 -0.10499816292042422 0 0.00033404581625597627 -0.10419791828752502 0 9.1635075598947542e-07 -0.10499851165418547 0 0.00033404581625597627 -0.10419791828752502 0 -4.2956793333916925e-05 -0.10403172226816129 0 9.1635075598947542e-07 -0.10499851165418547 0 -4.2956793333916925e-05 -0.10403172226816129 0 9.1635075598947542e-07 -0.10499851165418547 0 -0.00026548858256421451 -0.10371805891370152 0 -0.00053135939562311903 -0.10285660249921524 0 -0.00026548858256421451 -0.10371805891370152 0 -0.00083768865874624067 -0.10248619496799029 0 -0.00040323696454222838 -0.10308595821610454 0 -0.00026548858256421451 -0.10371805891370152 0 -0.00083768865874624067 -0.10248619496799029 0 -0.00040323696454222838 -0.10308595821610454 0 -4.2956793333916925e-05 -0.10403172226816129 0 -0.00026548858256421451 -0.10371805891370152 0 -0.00066502203009186306 -0.10187686815273671 0 -0.00083768865874624067 -0.10248619496799029 0 -0.0014388434011664798 -0.10150079968707125 0 -0.00083768865874624067 -0.10248619496799029 0 -0.0013628708954952363 -0.10183009405959265 0 -0.00098639311427960868 -0.10216091822244149 0 -0.00083768865874624067 -0.10248619496799029 0 -0.0014388434011664798 -0.10150079968707125 0 -0.0013628708954952363 -0.10183009405959265 0 -0.0021288572160549309 -0.1001482710535012 0 -0.0017255271017361789 -0.10111778017423795 0 -0.0014388434011664798 -0.10150079968707125 0 -0.0017255271017361789 -0.10111778017423795 0 -0.0014388434011664798 -0.10150079968707125 0 -0.0017460584178878059 -0.10145210740982689 0 -0.0014388434011664798 -0.10150079968707125 0 -0.0013628708954952363 -0.10183009405959265 0 -0.0017460584178878059 -0.10145210740982689 0 -0.0023640274232391788 -0.1007225430533745 0 -0.0014878737256585018 -0.10129999793673479 0 -0.0017460584178878059 -0.10145210740982689 0 -0.0014878737256585018 -0.10129999793673479 0 -0.0013628708954952363 -0.10183009405959265 0 -0.0017460584178878059 -0.10145210740982689 0 -0.0014878737256585018 -0.10129999793673479 0 -0.0013628708954952363 -0.10183009405959265 0 -0.00098639311427960868 -0.10216091822244149 0 -0.0014878737256585018 -0.10129999793673479 0 -0.00059712619826705947 -0.10178339471898304 0 -0.00098639311427960868 -0.10216091822244149 0 -0.00040323696454222838 -0.10308595821610454 0 -0.00083768865874624067 -0.10248619496799029 0 -0.00098639311427960868 -0.10216091822244149 0 -0.00034372881046664363 -0.060124910582156701 0 -0.00048784503681529136 -0.061838564506081654 0 0.00049172535513583257 -0.061423545311022364 0 -0.00034372881046664363 -0.060124910582156701 0 -0.0010337892763900584 -0.061652068207869504 0 -0.00048784503681529136 -0.061838564506081654 0 -0.00034372881046664363 -0.060124910582156701 0 0.00049172535513583257 -0.061423545311022364 0 0.00055746267168271921 -0.059615675884095942 0 -0.00034372881046664363 -0.060124910582156701 0 -0.0010337892763900584 -0.061652068207869504 0 -0.0010460866493785031 -0.060137222777363275 0 -0.0010337892763900584 -0.061652068207869504 0 -0.0010460866493785031 -0.060137222777363275 0 -0.001286680963187583 -0.062330721284464007 0 -0.0010460866493785031 -0.060137222777363275 0 -0.00032732372409174378 -0.055878204118456273 0 0.00015194767792765912 -0.057830868381102053 0 -0.00034372881046664363 -0.060124910582156701 0 -0.0010460866493785031 -0.060137222777363275 0 0.00015194767792765912 -0.057830868381102053 0 -0.00034372881046664363 -0.060124910582156701 0 0.00015194767792765912 -0.057830868381102053 0 0.00055746267168271921 -0.059615675884095942 0 -0.00032732372409174378 -0.055878204118456273 0 -1.1085316265278155e-06 -0.05658585861494389 0 -8.1919616707985371e-07 -0.050431726083095527 0 -0.00032732372409174378 -0.055878204118456273 0 -1.1085316265278155e-06 -0.05658585861494389 0 -0.00070424355473734949 -0.059900002990657931 0 -0.0010460866493785031 -0.060137222777363275 0 -0.00032732372409174378 -0.055878204118456273 0 -0.00070424355473734949 -0.059900002990657931 0 -0.0010460866493785031 -0.060137222777363275 0 -0.00070424355473734949 -0.059900002990657931 0 -0.00098321489439420263 -0.06304635677493424 0 -0.00070424355473734949 -0.059900002990657931 0 -1.6783639039615358e-06 -0.062736635915172603 0 -0.00098321489439420263 -0.06304635677493424 0 -1.1085316265278155e-06 -0.05658585861494389 0 -0.00070424355473734949 -0.059900002990657931 0 -1.6783639039615358e-06 -0.062736635915172603 0 -1.6783639039615358e-06 -0.062736635915172603 0 -0.00098321489439420263 -0.06304635677493424 0 -0.00022167207096419615 -0.066945443070853483 0 -0.00098321489439420263 -0.06304635677493424 0 -0.001286680963187583 -0.062330721284