<?xml version="1.0"?>
<VTKFile type="UnstructuredGrid" version="0.1" byte_order="LittleEndian">
<UnstructuredGrid>
<Piece NumberOfPoints="30881" NumberOfCells="10862">
<Points>
<DataArray type="Float64" NumberOfComponents="3" format="ascii">
-0.49999999999999828 -0.48677703703187492 0 -0.5 -0.5 0 -0.48129281494584059 -0.49338851851593718 0 -0.5 -0.5 0 -0.48129281494584059 -0.49338851851593718 0 -0.46258562989168328 -0.5 0 -0.49999999999999828 -0.48677703703187492 0 -0.48129281494584059 -0.49338851851593718 0 -0.49999999999999828 -0.48677703703187492 0 -0.4824545428279598 -0.47451624516148783 0 -0.48129281494584059 -0.49338851851593718 0 -0.49999999999999828 -0.48677703703187492 0 -0.4824545428279598 -0.47451624516148783 0 -0.5 -0.46599539173150673 0 -0.4824545428279598 -0.47451624516148783 0 -0.46853075243710779 -0.48354990242643758 0 -0.46411508256092049 -0.46598235294430129 0 -0.4824545428279598 -0.47451624516148783 0 -0.48129281494584059 -0.49338851851593718 0 -0.46853075243710779 -0.48354990242643758 0 -0.48129281494584059 -0.49338851851593718 0 -0.46258562989168328 -0.5 0 -0.48129281494584059 -0.49338851851593718 0 -0.46258562989168328 -0.5 0 -0.46853075243710779 -0.48354990242643758 0 -0.46258562989168328 -0.5 0 -0.46853075243710779 -0.48354990242643758 0 -0.45147378687733691 -0.48362213557840178 0 -0.46853075243710779 -0.48354990242643758 0 -0.45147378687733691 -0.48362213557840178 0 -0.46411508256092049 -0.46598235294430129 0 -0.4457251648104853 -0.47020164095208389 0 -0.45147378687733691 -0.48362213557840178 0 -0.46411508256092049 -0.46598235294430129 0 -0.4457251648104853 -0.47020164095208389 0 -0.45147378687733691 -0.48362213557840178 0 -0.43513446131126993 -0.48199891714758791 0 -0.45147378687733691 -0.48362213557840178 0 -0.43275163025255442 -0.5 0 -0.43513446131126993 -0.48199891714758791 0 -0.46258562989168328 -0.5 0 -0.45147378687733691 -0.48362213557840178 0 -0.43275163025255442 -0.5 0 -0.4467190029717853 -0.45478934699519452 0 -0.4422915115958943 -0.43555510214664611 0 -0.43246707723660932 -0.44794326854796312 0 -0.4457251648104853 -0.47020164095208389 0 -0.4467190029717853 -0.45478934699519452 0 -0.46411508256092049 -0.46598235294430129 0 -0.4457251648104853 -0.47020164095208389 0 -0.4467190029717853 -0.45478934699519452 0 -0.43016578207734568 -0.46313500011938619 0 -0.4467190029717853 -0.45478934699519452 0 -0.46411508256092049 -0.46598235294430129 0 -0.47114575579794699 -0.4403844242888923 0 -0.4467190029717853 -0.45478934699519452 0 -0.47114575579794699 -0.4403844242888923 0 -0.4422915115958943 -0.43555510214664611 0 -0.47114575579794699 -0.4403844242888923 0 -0.4422915115958943 -0.43555510214664611 0 -0.46411508256092049 -0.46598235294430129 0 -0.47114575579794699 -0.4403844242888923 0 -0.48354307623736548 -0.45841843211146538 0 -0.4824545428279598 -0.47451624516148783 0 -0.46411508256092049 -0.46598235294430129 0 -0.48354307623736548 -0.45841843211146538 0 -0.4824545428279598 -0.47451624516148783 0 -0.48354307623736548 -0.45841843211146538 0 -0.5 -0.46599539173150673 0 -0.48354307623736548 -0.45841843211146538 0 -0.5 -0.46599539173150673 0 -0.49999999999999972 -0.44521374643113848 0 -0.47114575579794699 -0.4403844242888923 0 -0.49999999999999972 -0.44521374643113848 0 -0.47114575579794699 -0.4403844242888923 0 -0.49999999999999972 -0.44521374643113848 0 -0.48704432221743971 -0.42935617662229603 0 -0.47114575579794699 -0.4403844242888923 0 -0.48354307623736548 -0.45841843211146538 0 -0.49999999999999972 -0.44521374643113848 0 -0.49999999999999972 -0.44521374643113848 0 -0.48704432221743971 -0.42935617662229603 0 -0.5 -0.41591957503128979 0 -0.48704432221743971 -0.42935617662229603 0 -0.5 -0.41591957503128979 0 -0.47703153307181151 -0.41590696073786332 0 -0.5 -0.41591957503128979 0 -0.47703153307181151 -0.41590696073786332 0 -0.48817838912021821 -0.4022119694541284 0 -0.47114575579794699 -0.4403844242888923 0 -0.48704432221743971 -0.42935617662229603 0 -0.47703153307181151 -0.41590696073786332 0 -0.5 -0.38662540363144121 0 -0.47568202340906118 -0.39039593841591919 0 -0.4947615751445838 -0.37332156409002909 0 -0.47568202340906118 -0.39039593841591919 0 -0.4947615751445838 -0.37332156409002909 0 -0.5 -0.38662540363144121 0 -0.48817838912021821 -0.4022119694541284 0 -0.47568202340906118 -0.39039593841591919 0 -0.5 -0.41591957503128979 0 -0.5 -0.38662540363144121 0 -0.48817838912021821 -0.4022119694541284 0 -0.47703153307181151 -0.41590696073786332 0 -0.48817838912021821 -0.4022119694541284 0 -0.47568202340906118 -0.39039593841591919 0 -0.47703153307181151 -0.41590696073786332 0 -0.47568202340906118 -0.39039593841591919 0 -0.45660247167353862 -0.40747031274180939 0 -0.47568202340906118 -0.39039593841591919 0 -0.48030931097003587 -0.37191064435083931 0 -0.46669490250066459 -0.37481721741951951 0 -0.47568202340906118 -0.39039593841591919 0 -0.4947615751445838 -0.37332156409002909 0 -0.48030931097003587 -0.37191064435083931 0 -0.45332061783919553 -0.38729481725706361 0 -0.46669490250066459 -0.37481721741951951 0 -0.45095991715087752 -0.36968037302039969 0 -0.47568202340906118 -0.39039593841591919 0 -0.45332061783919553 -0.38729481725706361 0 -0.46669490250066459 -0.37481721741951951 0 -0.47568202340906118 -0.39039593841591919 0 -0.45660247167353862 -0.40747031274180939 0 -0.47568202340906118 -0.39039593841591919 0 -0.45332061783919553 -0.38729481725706361 0 -0.45660247167353862 -0.40747031274180939 0 -0.44332653075004852 -0.401690115615219 0 -0.44646247228389868 -0.41654464256061052 0 -0.42870657106664078 -0.39987574649354879 0 -0.45332061783919553 -0.38729481725706361 0 -0.44332653075004852 -0.401690115615219 0 -0.43479631603355468 -0.39077639303142497 0 -0.45332061783919553 -0.38729481725706361 0 -0.44332653075004852 -0.401690115615219 0 -0.45660247167353862 -0.40747031274180939 0 -0.45332061783919553 -0.38729481725706361 0 -0.43421362475025049 -0.37527491429266319 0 -0.43479631603355468 -0.39077639303142497 0 -0.45332061783919553 -0.38729481725706361 0 -0.43421362475025049 -0.37527491429266319 0 -0.45095991715087752 -0.36968037302039969 0 -0.47114575579794699 -0.4403844242888923 0 -0.45663439814062529 -0.42533932462455271 0 -0.4422915115958943 -0.43555510214664611 0 -0.47114575579794699 -0.4403844242888923 0 -0.47703153307181151 -0.41590696073786332 0 -0.45663439814062529 -0.42533932462455271 0 -0.45663439814062529 -0.42533932462455271 0 -0.45660247167353862 -0.40747031274180939 0 -0.44646247228389868 -0.41654464256061052 0 -0.47703153307181151 -0.41590696073786332 0 -0.45663439814062529 -0.42533932462455271 0 -0.45660247167353862 -0.40747031274180939 0 -0.44332653075004852 -0.401690115615219 0 -0.45660247167353862 -0.40747031274180939 0 -0.44646247228389868 -0.41654464256061052 0 -0.45660247167353862 -0.40747031274180939 0 -0.44646247228389868 -0.41654464256061052 0 -0.44646247228389868 -0.41654464256061052 0 -0.4375229199380159 -0.42454468706769971 0 -0.45663439814062529 -0.42533932462455271 0 -0.4375229199380159 -0.42454468706769971 0 -0.4422915115958943 -0.43555510214664611 0 -0.45663439814062529 -0.42533932462455271 0 -0.44646247228389868 -0.41654464256061052 0 -0.4375229199380159 -0.42454468706769971 0 -0.4375229199380159 -0.42454468706769971 0 -0.4422915115958943 -0.43555510214664611 0 -0.43077617074680319 -0.43406335077952207 0 -0.43077617074680319 -0.43406335077952207 0 -0.42550232634077589 -0.42345940056268039 0 -0.41950844772475421 -0.43888456563633732 0 -0.4375229199380159 -0.42454468706769971 0 -0.43077617074680319 -0.43406335077952207 0 -0.42550232634077589 -0.42345940056268039 0 -0.44646247228389868 -0.41654464256061052 0 -0.41657232816672918 -0.41306671883907142 0 -0.42870657106664078 -0.39987574649354879 0 -0.44646247228389868 -0.41654464256061052 0 -0.4375229199380159 -0.42454468706769971 0 -0.42550232634077589 -0.42345940056268039 0 -0.44646247228389868 -0.41654464256061052 0 -0.42550232634077589 -0.42345940056268039 0 -0.41657232816672918 -0.41306671883907142 0 -0.44646247228389868 -0.41654464256061052 0 -0.41657232816672918 -0.41306671883907142 0 -0.42550232634077589 -0.42345940056268039 0 -0.41657232816672918 -0.41306671883907142 0 -0.41333489101611293 -0.42699700567040988 0 -0.41657232816672918 -0.41306671883907142 0 -0.41333489101611293 -0.42699700567040988 0 -0.39893236021425188 -0.42931692235905211 0 -0.41333489101611293 -0.42699700567040988 0 -0.39893236021425188 -0.42931692235905211 0 -0.41950844772475421 -0.43888456563633732 0 -0.42550232634077589 -0.42345940056268039 0 -0.41333489101611293 -0.42699700567040988 0 -0.41950844772475421 -0.43888456563633732 0 -0.43421362475025049 -0.37527491429266319 0 -0.42478231784314502 -0.38643128255249681 0 -0.41656514696884139 -0.37636588688318029 0 -0.43421362475025049 -0.37527491429266319 0 -0.42478231784314502 -0.38643128255249681 0 -0.43479631603355468 -0.39077639303142497 0 -0.42478231784314502 -0.38643128255249681 0 -0.43479631603355468 -0.39077639303142497 0 -0.42870657106664078 -0.39987574649354879 0 -0.44332653075004852 -0.401690115615219 0 -0.43479631603355468 -0.39077639303142497 0 -0.42870657106664078 -0.39987574649354879 0 -0.41657232816672918 -0.41306671883907142 0 -0.40962993039643741 -0.3898634720616666 0 -0.3946356370269814 -0.39577424904278191 0 -0.42478231784314502 -0.38643128255249681 0 -0.42870657106664078 -0.39987574649354879 0 -0.40962993039643741 -0.3898634720616666 0 -0.41657232816672918 -0.41306671883907142 0 -0.42870657106664078 -0.39987574649354879 0 -0.40962993039643741 -0.3898634720616666 0 -0.42478231784314502 -0.38643128255249681 0 -0.40962993039643741 -0.3898634720616666 0 -0.41656514696884139 -0.37636588688318029 0 -0.40962993039643741 -0.3898634720616666 0 -0.41656514696884139 -0.37636588688318029 0 -0.40465459864295228 -0.37650109000307358 0 -0.39431275766669582 -0.38061373190328529 0 -0.40465459864295228 -0.37650109000307358 0 -0.3968495855878465 -0.36923685638487008 0 -0.40962993039643741 -0.3898634720616666 0 -0.39431275766669582 -0.38061373190328529 0 -0.40465459864295228 -0.376501090003
[...]
<PointData Scalars="" Vectors="displacement," Tensors="">
<DataArray type="Float64" Name="displacement" NumberOfComponents="3" format="ascii">
-0.10223263964914064 -0.10499825983213411 0 -0.10499447356793699 -0.10499957916176164 0 -0.10582923706251823 -0.1015331004100619 0 -0.10499447356793699 -0.10499957916176164 0 -0.10582923706251823 -0.1015331004100619 0 -0.10500157449394655 -0.097145565682339008 0 -0.10222748365000195 -0.10499277473310742 0 -0.10355290026662747 -0.10099513841057499 0 -0.10221473104671928 -0.10499554648813933 0 -0.10008252651161541 -0.10162320832518101 0 -0.10059896528012734 -0.10023610498424411 0 -0.10221473104671928 -0.10499554648813933 0 -0.10008252651161541 -0.10162320832518101 0 -0.097859976739922402 -0.10499642216017502 0 -0.10008252651161541 -0.10162320832518101 0 -0.10131801709963105 -0.098329931159728851 0 -0.099716997315408507 -0.098228625244253104 0 -0.10008252651161541 -0.10162320832518101 0 -0.10059896528012734 -0.10023610498424411 0 -0.10131801709963105 -0.098329931159728851 0 -0.10355290026662747 -0.10099513841057499 0 -0.1049953650349993 -0.097149954539835409 0 -0.10059896528012734 -0.10023610498424411 0 -0.1049857105258917 -0.097140412389228867 0 -0.10131801709963105 -0.098329931159728851 0 -0.1049857105258917 -0.097140412389228867 0 -0.10131801709963105 -0.098329931159728851 0 -0.1024069313090242 -0.0957737955532489 0 -0.10131801709963105 -0.098329931159728851 0 -0.1024069313090242 -0.0957737955532489 0 -0.099716997315408507 -0.098228625244253104 0 -0.10068656887714582 -0.095630655938740664 0 -0.1024069313090242 -0.0957737955532489 0 -0.099716997315408507 -0.098228625244253104 0 -0.10068656887714582 -0.095630655938740664 0 -0.1024069313090242 -0.0957737955532489 0 -0.10248488903724595 -0.09313410502434126 0 -0.1024069313090242 -0.0957737955532489 0 -0.10499797822496613 -0.090883405929428882 0 -0.10248488903724595 -0.09313410502434126 0 -0.1049857105258917 -0.097140412389228867 0 -0.1024069313090242 -0.0957737955532489 0 -0.10499797822496613 -0.090883405929428882 0 -0.098845278936166153 -0.096704896412861688 0 -0.095243726352008951 -0.098199873222752102 0 -0.097345523250171484 -0.096118112359878868 0 -0.10068656887714582 -0.095630655938740664 0 -0.098845278936166153 -0.096704896412861688 0 -0.099716997315408507 -0.098228625244253104 0 -0.10068656887714582 -0.095630655938740664 0 -0.098845278936166153 -0.096704896412861688 0 -0.099495246291409462 -0.094544095273363604 0 -0.098845278936166153 -0.096704896412861688 0 -0.099716997315408507 -0.098228625244253104 0 -0.099133912622809614 -0.099274061002474365 0 -0.098845278936166153 -0.096704896412861688 0 -0.099133912622809614 -0.099274061002474365 0 -0.095243726352008951 -0.098199873222752102 0 -0.094294796644390347 -0.10242430621938085 0 -0.094546455722019682 -0.10149872635490936 0 -0.099716997315408507 -0.098228625244253104 0 -0.099133912622809614 -0.099274061002474365 0 -0.097965174155673851 -0.1022099579572837 0 -0.10008252651161541 -0.10162320832518101 0 -0.099716997315408507 -0.098228625244253104 0 -0.097965174155673851 -0.1022099579572837 0 -0.10008252651161541 -0.10162320832518101 0 -0.097965174155673851 -0.1022099579572837 0 -0.097859976739922402 -0.10499642216017502 0 -0.097965174155673851 -0.1022099579572837 0 -0.097859976739922402 -0.10499642216017502 0 -0.093508402901214788 -0.10499652351438685 0 -0.094294796644390347 -0.10242430621938085 0 -0.093496294460030618 -0.10499600350052694 0 -0.090573208603598757 -0.10555913281498261 0 -0.093488756146708304 -0.10499928791298928 0 -0.090300030689761751 -0.1057269664917731 0 -0.099133912622809614 -0.099274061002474365 0 -0.097965174155673851 -0.1022099579572837 0 -0.093508402901214788 -0.10499652351438685 0 -0.093488756146708304 -0.10499928791298928 0 -0.090300030689761751 -0.1057269664917731 0 -0.087347292479103222 -0.10499793624867079 0 -0.090300030689761751 -0.1057269664917731 0 -0.087347292479103222 -0.10499793624867079 0 -0.089890509533130852 -0.10572795902420128 0 -0.087347292479103222 -0.10499793624867079 0 -0.089890509533130852 -0.10572795902420128 0 -0.085990320295797396 -0.10571834932835592 0 -0.090573208603598757 -0.10555913281498261 0 -0.090300030689761751 -0.1057269664917731 0 -0.089890509533130852 -0.10572795902420128 0 -0.081195114326848963 -0.10499840315238124 0 -0.085104151354908328 -0.10698084748496553 0 -0.078909837970795871 -0.10586332916503015 0 -0.084870846041719544 -0.10512910624652051 0 -0.083136708430870079 -0.10459179923945199 0 -0.081195114326848963 -0.10499840315238124 0 -0.085990320295797396 -0.10571834932835592 0 -0.085104151354908328 -0.10698084748496553 0 -0.087347292479103222 -0.10499793624867079 0 -0.081195114326848963 -0.10499840315238124 0 -0.085990320295797396 -0.10571834932835592 0 -0.089890509533130852 -0.10572795902420128 0 -0.085990320295797396 -0.10571834932835592 0 -0.085104151354908328 -0.10698084748496553 0 -0.089890509533130852 -0.10572795902420128 0 -0.085104151354908328 -0.10698084748496553 0 -0.091283651735100377 -0.10455992603634696 0 -0.082862912215561996 -0.10935972945471553 0 -0.079484815760584179 -0.10837276050643722 0 -0.080900375973029265 -0.11029659902290985 0 -0.082862912215561996 -0.10935972945471553 0 -0.078909837970795871 -0.10586332916503015 0 -0.079484815760584179 -0.10837276050643722 0 -0.082900970473723551 -0.11153004014103829 0 -0.080900375973029265 -0.11029659902290985 0 -0.081544380248609952 -0.11150388958232059 0 -0.082862912215561996 -0.10935972945471553 0 -0.082900970473723551 -0.11153004014103829 0 -0.080900375973029265 -0.11029659902290985 0 -0.084870846041719544 -0.10512910624652051 0 -0.087858253628544269 -0.10481440831004553 0 -0.082862912215561996 -0.10935972945471553 0 -0.082900970473723551 -0.11153004014103829 0 -0.083671742453544876 -0.11150582219728739 0 -0.083456983604285051 -0.11181842649618264 0 -0.083006479619136597 -0.11198044716562178 0 -0.083400897924321551 -0.11131689982448767 0 -0.082900970473723551 -0.11153004014103829 0 -0.083456983604285051 -0.11181842649618264 0 -0.083887509842861863 -0.11175625227642619 0 -0.082900970473723551 -0.11153004014103829 0 -0.083456983604285051 -0.11181842649618264 0 -0.083671742453544876 -0.11150582219728739 0 -0.082900970473723551 -0.11153004014103829 0 -0.08400341124207307 -0.11204906110469492 0 -0.083887509842861863 -0.11175625227642619 0 -0.082900970473723551 -0.11153004014103829 0 -0.08400341124207307 -0.11204906110469492 0 -0.081544380248609952 -0.11150388958232059 0 -0.090573208603598757 -0.10555913281498261 0 -0.092990925490418874 -0.10272836365229039 0 -0.095243726352008951 -0.098199873222752102 0 -0.090573208603598757 -0.10555913281498261 0 -0.089890509533130852 -0.10572795902420128 0 -0.092990925490418874 -0.10272836365229039 0 -0.092990925490418874 -0.10272836365229039 0 -0.091283651735100377 -0.10455992603634696 0 -0.093824131035009362 -0.10147991927337195 0 -0.089890509533130852 -0.10572795902420128 0 -0.092990925490418874 -0.10272836365229039 0 -0.091283651735100377 -0.10455992603634696 0 -0.083456983604285051 -0.11181842649618264 0 -0.083671742453544876 -0.11150582219728739 0 -0.083006479619136597 -0.11198044716562178 0 -0.087858253628544269 -0.10481440831004553 0 -0.089838474615083319 -0.10428026717678804 0 -0.089838474615083319 -0.10428026717678804 0 -0.089871466700463254 -0.10367785033917461 0 -0.092990925490418874 -0.10272836365229039 0 -0.095442268438886951 -0.098214629087911579 0 -0.095243726352008951 -0.098199873222752102 0 -0.092990925490418874 -0.10272836365229039 0 -0.093824131035009362 -0.10147991927337195 0 -0.095442268438886951 -0.098214629087911579 0 -0.095442268438886951 -0.098214629087911579 0 -0.095243726352008951 -0.098199873222752102 0 -0.095801122141649639 -0.096717957720125772 0 -0.095801122141649639 -0.096717957720125772 0 -0.09581631514363001 -0.096271286384261995 0 -0.09630419783382059 -0.095300435082229518 0 -0.095442268438886951 -0.098214629087911579 0 -0.095801122141649639 -0.096717957720125772 0 -0.09581631514363001 -0.096271286384261995 0 -0.083006479619136597 -0.11198044716562178 0 -0.081658325161042863 -0.10998350056745461 0 -0.083400897924321551 -0.11131689982448767 0 -0.096726964196906615 -0.099354030015899888 0 -0.095442268438886951 -0.098214629087911579 0 -0.09581631514363001 -0.096271286384261995 0 -0.096726964196906615 -0.099354030015899888 0 -0.09581631514363001 -0.096271286384261995 0 -0.096439671644151792 -0.09509421102478921 0 -0.089838474615083319 -0.10428026717678804 0 -0.089115221669138198 -0.10228220488657819 0 -0.09581631514363001 -0.096271286384261995 0 -0.096439671644151792 -0.09509421102478921 0 -0.095764342747436754 -0.095076624103514959 0 -0.096439671644151792 -0.09509421102478921 0 -0.095764342747436754 -0.095076624103514959 0 -0.09521169002599085 -0.094285908350507916 0 -0.095764342747436754 -0.095076624103514959 0 -0.09521169002599085 -0.094285908350507916 0 -0.09630419783382059 -0.095300435082229518 0 -0.09581631514363001 -0.096271286384261995 0 -0.095764342747436754 -0.095076624103514959 0 -0.09630419783382059 -0.095300435082229518 0 -0.08400341124207307 -0.11204906110469492 0 -0.084788407341915201 -0.11121258027919501 0 -0.086344322667775419 -0.11093222307609552 0 -0.08400341124207307 -0.11204906110469492 0 -0.084788407341915201 -0.11121258027919501 0 -0.083887509842861863 -0.11175625227642619 0 -0.084788407341915201 -0.11121258027919501 0 -0.083887509842861863 -0.11175625227642619 0 -0.083400897924321551 -0.11131689982448767 0 -0.083456983604285051 -0.11181842649618264 0 -0.083887509842861863 -0.11175625227642619 0 -0.083400897924321551 -0.11131689982448767 0 -0.081658325161042863 -0.10998350056745461 0 -0.085403611089418546 -0.10880314864896169 0 -0.08512192624586272 -0.10450682417357002 0 -0.084788407341915201 -0.11121258027919501 0 -0.083400897924321551 -0.11131689982448767 0 -0.085403611089418546 -0.10880314864896169 0 -0.081658325161042863 -0.10998350056745461 0 -0.083400897924321551 -0.11131689982448767 0 -0.085403611089418546 -0.10880314864896169 0 -0.084788407341915201 -0.11121258027919501 0 -0.085403611089418546 -0.10880314864896169 0 -0.086344322667775419 -0.11093222307609552 0 -0.085403611089418546 -0.10880314864896169 0 -0.086344322667775419 -0.11093222307609552 0 -0.088094639340866213 -0.10813552319578255 0 -0.088403137420694819 -0.10468399650546915 0 -0.088094639340866213 -0.10813552319578255 0 -0.0911783574387941 -0.10579219363227903 0 -0.085403611089418546 -0.10880314864896169 0 -0.088403137420694819 -0.10468399650546915 0 -0.088094639340866213 -0.10813552319578255 0 -0.085403611089418546 -0.10880314864896169 0 -0.088403137420694819 -0.10468399650546915 0 -0.08512192624586272 -0.10450682417357002 0 -0.08512192624586272 -0.10450682417357002 0 -0.082048762900803873 -0.10191449502259635 0 -0.086634192573007751 -0.097937393675512519 0 -0.08512192624586272 -0.10450682417357002 0 -0.089934920421904846 -0.097950829553083263 0 -0.086634192573007751 -0.097937393675512519 0 -0.088403137420694819 -0.10468399650546915 0 -0.08512192624586272 -0.10450682417357002 0 -0.089934920421904846 -0.097950829553083263 0 -0.088403137420694819 -0.10468399650546915 0 -0.089934920421904846 -0.097950829553083263 0 -0.092227866285313126 -0.10160953656187734 0 -0.096439671644151792 -0.09509421102478921 0 -0.09521169002599085 -0.094285908350507916 0 -0.093845936955684842 -0.093798617558715033 0 -0.081658325161042863 -0.10998350056745461 0 -0.08512192624586272 -0.10450682417357002 0 -0.082048762900803873 -0.10191449502259635 0 -0.089115221669138198 -0.10228220488657819 0 -0.088603884475355998 -0.099653537700503447 0 -0.093845936955684842 -0.093798617558715033 0 -0.094107241885903178 -0.094168022128391426 0 -0.091676597867447515 -0.094304017314988914 0 -0.094107241885903178 -0.094168022128391426 0 -0.095884212670875657 -0.09454445286617208 0 -0.093874272378139292 -0.094694792428683824 0 -0.09521169002599085 -0.094285908350507916 0 -0.094107241885903178 -0.094168022128391426 0 -0.095884212670875657 -0.09454445286617208 0 -0.09521169002599085 -0.094285908350507916 0 -0.093845936955684842 -0.093798617558715033 0 -0.094107241885903178 -0.094168022128391426 0 -0.095884212670875657 -0.09454445286617208 0 -0.097141823331232988 -0.09427987185369377 0 -0.098383298453238816 -0.094574394331145839 0 -0.09521169002599085 -0.094285908350507916 0 -0.095884212670875657 -0.09454445286617208 0 -0.097141823331232988 -0.09427987185369377 0 -0.097141823331232988 -0.09427987185369377 0 -0.098383298453238816 -0.094574394331145839 0 -0.099712611455559444 -0.093539145389971781 0 -0.095884212670875657 -0.09454445286617208 0 -0.098383298453238816 -0.094574394331145839 0 -0.097703384953080299 -0.095580729756674546 0 -0.098383298453238816 -0.094574394331145839 0 -0.100208720831892 -0.095483387573924092 0 -0.097703384953080299 -0.095580729756674546 0 -0.100208720831892 -0.095483387573924092 0 -0.10294869185115332 -0.094547804501440069 0 -0.10046770106889671 -0.094165187100849382 0 -0.098383298453238816 -0.094574394331145839 0 -0.100208720831892 -0.095483387573924092 0 -0.10046770106889671 -0.094165187100849382 0 -0.10404666363794289 -0.085477895018061648 0 -0.10349369619619982 -0.080316420600273525 0 -0.10660892668974468 -0.082192296040974555 0 -0.1049967534287735 -0.08461876305453106 0 -0.1050018885848228 -0.078344081936802923 0 -0.10660892668974468 -0.082192296040974555 0 -0.10618140307126944 -0.077824164701712897 0 -0.1050018885848228 -0.078344081936802923 0 -0.100208720831892 -0.095483387573924092 0 -0.10294869185115332 -0.094547804501440069 0 -0.10232328604913199 -0.096635695889330325 0 -0.10404666363794289 -0.085477895018061648 0 -0.10418820198161072 -0.086498759254630117 0 -0.10294869185115332 -0.094547804501440069 0 -0.10046770106889671 -0.094165187100849382 0 -0.10161609249794301 -0.092499208292224036 0 -0.10660892668974468 -0.082192296040974555 0 -0.1049967534287735 -0.08461876305453106 0 -0.10474281451455453 -0.088982497215992037 0 -0.10294869185115332 -0.094547804501440069 0 -0.10161609249794301 -0.092499208292224036 0 -0.10474281451455453 -0.088982497215992037 0 -0.098383298453238816 -0.094574394331145839 0 -0.10046770106889671 -0.094165187100849382 0 -0.099712611455559444 -0.093539145389971781 0 -0.10046770106889671 -0.094165187100849382 0 -0.10161609249794301 -0.092499208292224036 0 -0.099712611455559444 -0.093539145389971781 0 -0.099712611455559444 -0.093539145389971781 0 -0.10121334112968225 -0.092224434020227633 0 -0.098882519764076818 -0.093762582021354346 0 -0.10161609249794301 -0.092499208292224036 0 -0.10121334112968225 -0.092224434020227633 0 -0.10474281451455453 -0.088982497215992037 0 -0.10161609249794301 -0.092499208292224036 0 -0.099712611455559444 -0.093539145389971781 0 -0.10121334112968225 -0.092224434020227633 0 -0.10121334112968225 -0.092224434020227633 0 -0.10474281451455453 -0.088982497215992037 0 -0.10353846518289452 -0.091229838255891385 0 -0.1049967534287735 -0.08461876305453106 0 -0.10474281451455453 -0.088982497215992037 0 -0.10499797822496613 -0.090883405929428882 0 -0.10474281451455453 -0.088982497215992037 0 -0.10353846518289452 -0.091229838255891385 0 -0.10499797822496613 -0.090883405929428882 0 -0.10353846518289452 -0.091229838255891385 0 -0.10499797822496613 -0.090883405929428882 0 -0.10248488903724595 -0.09313410502434126 0 -0.10068656887714582 -0.095630655938740664 0 -0.10248488903724595 -0.09313410502434126 0 -0.099495246291409462 -0.094544095273363604 0 -0.10121334112968225 -0.092224434020227633 0 -0.10248488903724595 -0.09313410502434126 0 -0.099495246291409462 -0.094544095273363604 0 -0.10121334112968225 -0.092224434020227633 0 -0.10353846518289452 -0.091229838255891385 0 -0.10248488903724595 -0.09313410502434126 0 -0.098845278936166153 -0.096704896412861688 0 -0.099495246291409462 -0.094544095273363604 0 -0.097345523250171484 -0.096118112359878868 0 -0.099495246291409462 -0.094544095273363604 0 -0.097687810861929444 -0.094758797565768951 0 -0.098882519764076818 -0.093762582021354346 0 -0.099495246291409462 -0.094544095273363604 0 -0.097345523250171484 -0.096118112359878868 0 -0.097687810861929444 -0.094758797565768951 0 -0.095243726352008951 -0.098199873222752102 0 -0.095801122141649639 -0.096717957720125772 0 -0.097345523250171484 -0.096118112359878868 0 -0.095801122141649639 -0.096717957720125772 0 -0.097345523250171484 -0.096118112359878868 0 -0.09630419783382059 -0.095300435082229518 0 -0.097345523250171484 -0.096118112359878868 0 -0.097687810861929444 -0.094758797565768951 0 -0.09630419783382059 -0.095300435082229518 0 -0.09521169002599085 -0.094285908350507916 0 -0.097141823331232988 -0.09427987185369377 0 -0.09630419783382059 -0.095300435082229518 0 -0.097141823331232988 -0.09427987185369377 0 -0.097687810861929444 -0.094758797565768951 0 -0.09630419783382059 -0.095300435082229518 0 -0.097141823331232988 -0.09427987185369377 0 -0.097687810861929444 -0.094758797565768951 0 -0.098882519764076818 -0.093762582021354346 0 -0.097141823331232988 -0.09427987185369377 0 -0.099712611455559444 -0.093539145389971781 0 -0.098882519764076818 -0.093762582021354346 0 -0.10121334112968225 -0.092224434020227633 0 -0.099495246291409462 -0.094544095273363604 0 -0.098882519764076818 -0.093762582021354346 0 -0.053589881896367209 -0.11570741932247042 0 -0.054721256714560997 -0.12033569734079472 0 -0.051398297643524223 -0.11894870215910217 0 -0.053589881896367209 -0.11570741932247042 0 -0.057681592392039953 -0.11854555690882551 0 -0.054721256714560997 -0.12033569734079472 0 -0.053589881896367209 -0.11570741932247042 0 -0.051398297643524223 -0.11894870215910217 0 -0.05133877821567967 -0.11547827178056408 0 -0.053589881896367209 -0.11570741932247042 0 -0.057681592392039953 -0.11854555690882551 0 -0.057060237010000646 -0.11293924758017077 0 -0.057681592392039953 -0.11854555690882551 0 -0.057060237010000646 -0.11293924758017077 0 -0.061944948822623205 -0.11617996930567882 0 -0.057060237010000646 -0.11293924758017077 0 -0.053341696105802319 -0.10876242903080555 0 -0.051626719956603576 -0.11283230838825058 0 -0.053589881896367209 -0.11570741932247042 0 -0.057060237010000646 -0.11293924758017077 0 -0.051626719956603576 -0.11283230838825058 0 -0.053589881896367209 -0.11570741932247042 0 -0.051626719956603576 -0.11283230838825058 0 -0.05133877821567967 -0.11547827178056408 0 -0.053341696105802319 -0.10876242903080555 0 -0.056584568499932549 -0.10500001901178521 0 -0.050430193536183075 -0.10499866745551223 0 -0.053341696105802319 -0.10876242903080555 0 -0.056584568499932549 -0.10500001901178521 0 -0.05904300671528747 -0.10845101378705632 0 -0.057060237010000646 -0.11293924758017077 0 -0.053341696105802319 -0.10876242903080555 0 -0.05904300671528747 -0.10845101378705632 0 -0.057060237010000646 -0.11293924758017077 0 -0.05904300671528747 -0.10845101378705632 0 -0.063104113817020677 -0.11107181184189248 0 -0.05904300671528747 -0.10845101378705632 0 -0.062736385558835983 -0.10499940607674303 0 -0.063104113817020677 -0.11107181184189248 0 -0.056584568499932549 -0.10500001901178521 0 -0.05904300671528747 -0.10845101378705632 0 -0.062736385558835983 -0.10499940607674303 0 -0.062736385558835983 -0.10499940607674303 0 -0.063104113817020677 -0.11107181184189248 0 -0.06879659698514011 -0.10918396229348705 0 -0.063104113817020677 -0.11107181184189248 0 -0.061944948822623205 -0.11617996930567882 0 -0.069230894802676982 -0.11539191930837095 0 -0.057060237010000646 -0.11293924758017077 0 -0.063104113817020677 -0.11107181184189248 0 -0.061944948822623205 -0.11617996930567882 0 -0.057681592392039953 -0.11854555690882551 0 -0.061944948822623205 -0.11617996930567882 0 -0.061331002332309377 -0.11978340212443257 0 -0.061944948822623205 -0.11617996930567882 0 -0.069230894802676982 -0.11539191930837095 0 -0.064903331667173603 -0.12004617963156376 0 -0.064380222548469507 -0.11365489908695407 0 -0.063481111490874667 -0.11265767027903481 0 -0.069230894802676982 -0.11539191930837095 0 -0.075458684797705483 -0.11164204884393357 0 -0.073944605554613241 -0.11951401227731746 0 -0.080790429427312294 -0.11272229885162134 0 -0.082270637356