<?xml version="1.0"?>
<VTKFile type="UnstructuredGrid" version="0.1" byte_order="LittleEndian">
<UnstructuredGrid>
<Piece NumberOfPoints="30881" NumberOfCells="10862">
<Points>
<DataArray type="Float64" NumberOfComponents="3" format="ascii">
-0.49999999999999828 -0.48677703703187492 0 -0.5 -0.5 0 -0.48129281494584059 -0.49338851851593718 0 -0.5 -0.5 0 -0.48129281494584059 -0.49338851851593718 0 -0.46258562989168328 -0.5 0 -0.49999999999999828 -0.48677703703187492 0 -0.48129281494584059 -0.49338851851593718 0 -0.49999999999999828 -0.48677703703187492 0 -0.4824545428279598 -0.47451624516148783 0 -0.48129281494584059 -0.49338851851593718 0 -0.49999999999999828 -0.48677703703187492 0 -0.4824545428279598 -0.47451624516148783 0 -0.5 -0.46599539173150673 0 -0.4824545428279598 -0.47451624516148783 0 -0.46853075243710779 -0.48354990242643758 0 -0.46411508256092049 -0.46598235294430129 0 -0.4824545428279598 -0.47451624516148783 0 -0.48129281494584059 -0.49338851851593718 0 -0.46853075243710779 -0.48354990242643758 0 -0.48129281494584059 -0.49338851851593718 0 -0.46258562989168328 -0.5 0 -0.48129281494584059 -0.49338851851593718 0 -0.46258562989168328 -0.5 0 -0.46853075243710779 -0.48354990242643758 0 -0.46258562989168328 -0.5 0 -0.46853075243710779 -0.48354990242643758 0 -0.45147378687733691 -0.48362213557840178 0 -0.46853075243710779 -0.48354990242643758 0 -0.45147378687733691 -0.48362213557840178 0 -0.46411508256092049 -0.46598235294430129 0 -0.4457251648104853 -0.47020164095208389 0 -0.45147378687733691 -0.48362213557840178 0 -0.46411508256092049 -0.46598235294430129 0 -0.4457251648104853 -0.47020164095208389 0 -0.45147378687733691 -0.48362213557840178 0 -0.43513446131126993 -0.48199891714758791 0 -0.45147378687733691 -0.48362213557840178 0 -0.43275163025255442 -0.5 0 -0.43513446131126993 -0.48199891714758791 0 -0.46258562989168328 -0.5 0 -0.45147378687733691 -0.48362213557840178 0 -0.43275163025255442 -0.5 0 -0.4467190029717853 -0.45478934699519452 0 -0.4422915115958943 -0.43555510214664611 0 -0.43246707723660932 -0.44794326854796312 0 -0.4457251648104853 -0.47020164095208389 0 -0.4467190029717853 -0.45478934699519452 0 -0.46411508256092049 -0.46598235294430129 0 -0.4457251648104853 -0.47020164095208389 0 -0.4467190029717853 -0.45478934699519452 0 -0.43016578207734568 -0.46313500011938619 0 -0.4467190029717853 -0.45478934699519452 0 -0.46411508256092049 -0.46598235294430129 0 -0.47114575579794699 -0.4403844242888923 0 -0.4467190029717853 -0.45478934699519452 0 -0.47114575579794699 -0.4403844242888923 0 -0.4422915115958943 -0.43555510214664611 0 -0.47114575579794699 -0.4403844242888923 0 -0.4422915115958943 -0.43555510214664611 0 -0.46411508256092049 -0.46598235294430129 0 -0.47114575579794699 -0.4403844242888923 0 -0.48354307623736548 -0.45841843211146538 0 -0.4824545428279598 -0.47451624516148783 0 -0.46411508256092049 -0.46598235294430129 0 -0.48354307623736548 -0.45841843211146538 0 -0.4824545428279598 -0.47451624516148783 0 -0.48354307623736548 -0.45841843211146538 0 -0.5 -0.46599539173150673 0 -0.48354307623736548 -0.45841843211146538 0 -0.5 -0.46599539173150673 0 -0.49999999999999972 -0.44521374643113848 0 -0.47114575579794699 -0.4403844242888923 0 -0.49999999999999972 -0.44521374643113848 0 -0.47114575579794699 -0.4403844242888923 0 -0.49999999999999972 -0.44521374643113848 0 -0.48704432221743971 -0.42935617662229603 0 -0.47114575579794699 -0.4403844242888923 0 -0.48354307623736548 -0.45841843211146538 0 -0.49999999999999972 -0.44521374643113848 0 -0.49999999999999972 -0.44521374643113848 0 -0.48704432221743971 -0.42935617662229603 0 -0.5 -0.41591957503128979 0 -0.48704432221743971 -0.42935617662229603 0 -0.5 -0.41591957503128979 0 -0.47703153307181151 -0.41590696073786332 0 -0.5 -0.41591957503128979 0 -0.47703153307181151 -0.41590696073786332 0 -0.48817838912021821 -0.4022119694541284 0 -0.47114575579794699 -0.4403844242888923 0 -0.48704432221743971 -0.42935617662229603 0 -0.47703153307181151 -0.41590696073786332 0 -0.5 -0.38662540363144121 0 -0.47568202340906118 -0.39039593841591919 0 -0.4947615751445838 -0.37332156409002909 0 -0.47568202340906118 -0.39039593841591919 0 -0.4947615751445838 -0.37332156409002909 0 -0.5 -0.38662540363144121 0 -0.48817838912021821 -0.4022119694541284 0 -0.47568202340906118 -0.39039593841591919 0 -0.5 -0.41591957503128979 0 -0.5 -0.38662540363144121 0 -0.48817838912021821 -0.4022119694541284 0 -0.47703153307181151 -0.41590696073786332 0 -0.48817838912021821 -0.4022119694541284 0 -0.47568202340906118 -0.39039593841591919 0 -0.47703153307181151 -0.41590696073786332 0 -0.47568202340906118 -0.39039593841591919 0 -0.45660247167353862 -0.40747031274180939 0 -0.47568202340906118 -0.39039593841591919 0 -0.48030931097003587 -0.37191064435083931 0 -0.46669490250066459 -0.37481721741951951 0 -0.47568202340906118 -0.39039593841591919 0 -0.4947615751445838 -0.37332156409002909 0 -0.48030931097003587 -0.37191064435083931 0 -0.45332061783919553 -0.38729481725706361 0 -0.46669490250066459 -0.37481721741951951 0 -0.45095991715087752 -0.36968037302039969 0 -0.47568202340906118 -0.39039593841591919 0 -0.45332061783919553 -0.38729481725706361 0 -0.46669490250066459 -0.37481721741951951 0 -0.47568202340906118 -0.39039593841591919 0 -0.45660247167353862 -0.40747031274180939 0 -0.47568202340906118 -0.39039593841591919 0 -0.45332061783919553 -0.38729481725706361 0 -0.45660247167353862 -0.40747031274180939 0 -0.44332653075004852 -0.401690115615219 0 -0.44646247228389868 -0.41654464256061052 0 -0.42870657106664078 -0.39987574649354879 0 -0.45332061783919553 -0.38729481725706361 0 -0.44332653075004852 -0.401690115615219 0 -0.43479631603355468 -0.39077639303142497 0 -0.45332061783919553 -0.38729481725706361 0 -0.44332653075004852 -0.401690115615219 0 -0.45660247167353862 -0.40747031274180939 0 -0.45332061783919553 -0.38729481725706361 0 -0.43421362475025049 -0.37527491429266319 0 -0.43479631603355468 -0.39077639303142497 0 -0.45332061783919553 -0.38729481725706361 0 -0.43421362475025049 -0.37527491429266319 0 -0.45095991715087752 -0.36968037302039969 0 -0.47114575579794699 -0.4403844242888923 0 -0.45663439814062529 -0.42533932462455271 0 -0.4422915115958943 -0.43555510214664611 0 -0.47114575579794699 -0.4403844242888923 0 -0.47703153307181151 -0.41590696073786332 0 -0.45663439814062529 -0.42533932462455271 0 -0.45663439814062529 -0.42533932462455271 0 -0.45660247167353862 -0.40747031274180939 0 -0.44646247228389868 -0.41654464256061052 0 -0.47703153307181151 -0.41590696073786332 0 -0.45663439814062529 -0.42533932462455271 0 -0.45660247167353862 -0.40747031274180939 0 -0.44332653075004852 -0.401690115615219 0 -0.45660247167353862 -0.40747031274180939 0 -0.44646247228389868 -0.41654464256061052 0 -0.45660247167353862 -0.40747031274180939 0 -0.44646247228389868 -0.41654464256061052 0 -0.44646247228389868 -0.41654464256061052 0 -0.4375229199380159 -0.42454468706769971 0 -0.45663439814062529 -0.42533932462455271 0 -0.4375229199380159 -0.42454468706769971 0 -0.4422915115958943 -0.43555510214664611 0 -0.45663439814062529 -0.42533932462455271 0 -0.44646247228389868 -0.41654464256061052 0 -0.4375229199380159 -0.42454468706769971 0 -0.4375229199380159 -0.42454468706769971 0 -0.4422915115958943 -0.43555510214664611 0 -0.43077617074680319 -0.43406335077952207 0 -0.43077617074680319 -0.43406335077952207 0 -0.42550232634077589 -0.42345940056268039 0 -0.41950844772475421 -0.43888456563633732 0 -0.4375229199380159 -0.42454468706769971 0 -0.43077617074680319 -0.43406335077952207 0 -0.42550232634077589 -0.42345940056268039 0 -0.44646247228389868 -0.41654464256061052 0 -0.41657232816672918 -0.41306671883907142 0 -0.42870657106664078 -0.39987574649354879 0 -0.44646247228389868 -0.41654464256061052 0 -0.4375229199380159 -0.42454468706769971 0 -0.42550232634077589 -0.42345940056268039 0 -0.44646247228389868 -0.41654464256061052 0 -0.42550232634077589 -0.42345940056268039 0 -0.41657232816672918 -0.41306671883907142 0 -0.44646247228389868 -0.41654464256061052 0 -0.41657232816672918 -0.41306671883907142 0 -0.42550232634077589 -0.42345940056268039 0 -0.41657232816672918 -0.41306671883907142 0 -0.41333489101611293 -0.42699700567040988 0 -0.41657232816672918 -0.41306671883907142 0 -0.41333489101611293 -0.42699700567040988 0 -0.39893236021425188 -0.42931692235905211 0 -0.41333489101611293 -0.42699700567040988 0 -0.39893236021425188 -0.42931692235905211 0 -0.41950844772475421 -0.43888456563633732 0 -0.42550232634077589 -0.42345940056268039 0 -0.41333489101611293 -0.42699700567040988 0 -0.41950844772475421 -0.43888456563633732 0 -0.43421362475025049 -0.37527491429266319 0 -0.42478231784314502 -0.38643128255249681 0 -0.41656514696884139 -0.37636588688318029 0 -0.43421362475025049 -0.37527491429266319 0 -0.42478231784314502 -0.38643128255249681 0 -0.43479631603355468 -0.39077639303142497 0 -0.42478231784314502 -0.38643128255249681 0 -0.43479631603355468 -0.39077639303142497 0 -0.42870657106664078 -0.39987574649354879 0 -0.44332653075004852 -0.401690115615219 0 -0.43479631603355468 -0.39077639303142497 0 -0.42870657106664078 -0.39987574649354879 0 -0.41657232816672918 -0.41306671883907142 0 -0.40962993039643741 -0.3898634720616666 0 -0.3946356370269814 -0.39577424904278191 0 -0.42478231784314502 -0.38643128255249681 0 -0.42870657106664078 -0.39987574649354879 0 -0.40962993039643741 -0.3898634720616666 0 -0.41657232816672918 -0.41306671883907142 0 -0.42870657106664078 -0.39987574649354879 0 -0.40962993039643741 -0.3898634720616666 0 -0.42478231784314502 -0.38643128255249681 0 -0.40962993039643741 -0.3898634720616666 0 -0.41656514696884139 -0.37636588688318029 0 -0.40962993039643741 -0.3898634720616666 0 -0.41656514696884139 -0.37636588688318029 0 -0.40465459864295228 -0.37650109000307358 0 -0.39431275766669582 -0.38061373190328529 0 -0.40465459864295228 -0.37650109000307358 0 -0.3968495855878465 -0.36923685638487008 0 -0.40962993039643741 -0.3898634720616666 0 -0.39431275766669582 -0.38061373190328529 0 -0.40465459864295228 -0.376501090003
[...]
<PointData Scalars="" Vectors="displacement," Tensors="">
<DataArray type="Float64" Name="displacement" NumberOfComponents="3" format="ascii">
-0.10499937054173054 2.8992334712107675e-07 0 -0.10499792117170544 -5.8570491687925091e-07 0 -0.1018568095309994 9.84305814530522e-08 0 -0.10499792117170544 -5.8570491687925091e-07 0 -0.1018568095309994 9.84305814530522e-08 0 -0.097147763254729638 8.7968152299634909e-07 0 -0.10499071058628248 -1.5165710040257605e-06 0 -0.10113388208614037 -0.00014054554786219924 0 -0.10499402032685565 -1.8356192067853364e-06 0 -0.10241255564072559 -0.00075418693566055208 0 -0.10086958595662669 -0.00089238487397303909 0 -0.10499402032685565 -1.8356192067853364e-06 0 -0.10241255564072559 -0.00075418693566055208 0 -0.10499844734650343 -1.3398007205828548e-07 0 -0.10241255564072559 -0.00075418693566055208 0 -0.099744013413921639 -0.0006356765225136471 0 -0.10060206848156547 -0.00086848541347497659 0 -0.10241255564072559 -0.00075418693566055208 0 -0.10086958595662669 -0.00089238487397303909 0 -0.099744013413921639 -0.0006356765225136471 0 -0.10113388208614037 -0.00014054554786219924 0 -0.097152549448178374 1.0003654929396145e-06 0 -0.10086958595662669 -0.00089238487397303909 0 -0.097141593088192896 -3.3547207164817648e-06 0 -0.099744013413921639 -0.0006356765225136471 0 -0.097141593088192896 -3.3547207164817648e-06 0 -0.099744013413921639 -0.0006356765225136471 0 -0.09716790992913743 -0.00056498193633418704 0 -0.099744013413921639 -0.0006356765225136471 0 -0.09716790992913743 -0.00056498193633418704 0 -0.10060206848156547 -0.00086848541347497659 0 -0.09817455301918937 -0.00047877530962032631 0 -0.09716790992913743 -0.00056498193633418704 0 -0.10060206848156547 -0.00086848541347497659 0 -0.09817455301918937 -0.00047877530962032631 0 -0.09716790992913743 -0.00056498193633418704 0 -0.095194462871318136 -0.0001947283786989482 0 -0.09716790992913743 -0.00056498193633418704 0 -0.090882875580660064 -7.0485464548295175e-07 0 -0.095194462871318136 -0.0001947283786989482 0 -0.097141593088192896 -3.3547207164817648e-06 0 -0.09716790992913743 -0.00056498193633418704 0 -0.090882875580660064 -7.0485464548295175e-07 0 -0.099885911084726928 -0.00042066310423655748 0 -0.10133286293096368 6.8930630102306641e-05 0 -0.099781484814587845 0.00039919094003637584 0 -0.09817455301918937 -0.00047877530962032631 0 -0.099885911084726928 -0.00042066310423655748 0 -0.10060206848156547 -0.00086848541347497659 0 -0.09817455301918937 -0.00047877530962032631 0 -0.099885911084726928 -0.00042066310423655748 0 -0.097989345411972503 0.00030793697991784563 0 -0.099885911084726928 -0.00042066310423655748 0 -0.10060206848156547 -0.00086848541347497659 0 -0.10193558728788726 -0.0010213841534026803 0 -0.099885911084726928 -0.00042066310423655748 0 -0.10193558728788726 -0.0010213841534026803 0 -0.10133286293096368 6.8930630102306641e-05 0 -0.10377011055796838 -0.00038948255379163399 0 -0.10327012816272306 -0.00010981446530809032 0 -0.10060206848156547 -0.00086848541347497659 0 -0.10193558728788726 -0.0010213841534026803 0 -0.10303713055872904 -0.00063458707655009736 0 -0.10241255564072559 -0.00075418693566055208 0 -0.10060206848156547 -0.00086848541347497659 0 -0.10303713055872904 -0.00063458707655009736 0 -0.10241255564072559 -0.00075418693566055208 0 -0.10303713055872904 -0.00063458707655009736 0 -0.10499844734650343 -1.3398007205828548e-07 0 -0.10303713055872904 -0.00063458707655009736 0 -0.10499844734650343 -1.3398007205828548e-07 0 -0.10499556332617101 -8.7614528577165825e-07 0 -0.10377011055796838 -0.00038948255379163399 0 -0.10499772555096787 -7.1859233852679027e-07 0 -0.10380795153483682 -0.0002509142672001332 0 -0.10499924897005253 -1.0706049440320157e-07 0 -0.1045024755533813 -0.0001361082232545054 0 -0.10193558728788726 -0.0010213841534026803 0 -0.10303713055872904 -0.00063458707655009736 0 -0.10499556332617101 -8.7614528577165825e-07 0 -0.10499924897005253 -1.0706049440320157e-07 0 -0.1045024755533813 -0.0001361082232545054 0 -0.10499904419616536 -2.6404576300868423e-07 0 -0.1045024755533813 -0.0001361082232545054 0 -0.10499904419616536 -2.6404576300868423e-07 0 -0.10419915220450168 -0.00023153019698791342 0 -0.10499904419616536 -2.6404576300868423e-07 0 -0.10419915220450168 -0.00023153019698791342 0 -0.10474465864447741 -0.00015579811907313169 0 -0.10380795153483682 -0.0002509142672001332 0 -0.1045024755533813 -0.0001361082232545054 0 -0.10419915220450168 -0.00023153019698791342 0 -0.10499909595064376 -2.0859702131201509e-07 0 -0.1047546122975557 -0.00017787258311277517 0 -0.10459244573259571 -0.00013752025588689313 0 -0.10267416568538326 0.00055444972832764585 0 -0.10310464370641746 0.00027986481758218132 0 -0.10499909595064376 -2.0859702131201509e-07 0 -0.10474465864447741 -0.00015579811907313169 0 -0.1047546122975557 -0.00017787258311277517 0 -0.10499904419616536 -2.6404576300868423e-07 0 -0.10499909595064376 -2.0859702131201509e-07 0 -0.10474465864447741 -0.00015579811907313169 0 -0.10419915220450168 -0.00023153019698791342 0 -0.10474465864447741 -0.00015579811907313169 0 -0.1047546122975557 -0.00017787258311277517 0 -0.10419915220450168 -0.00023153019698791342 0 -0.1047546122975557 -0.00017787258311277517 0 -0.10394885363319406 4.3513363515577055e-06 0 -0.10110718153633191 0.00045618631390340368 0 -0.10345708087184237 0.00033078789323093949 0 -0.10241895878961324 0.0011842638896854031 0 -0.10110718153633191 0.00045618631390340368 0 -0.10459244573259571 -0.00013752025588689313 0 -0.10345708087184237 0.00033078789323093949 0 -0.10074503259581302 0.0023620597250744776 0 -0.10241895878961324 0.0011842638896854031 0 -0.10198369092355727 0.0022522839778834256 0 -0.10110718153633191 0.00045618631390340368 0 -0.10074503259581302 0.0023620597250744776 0 -0.10241895878961324 0.0011842638896854031 0 -0.10267416568538326 0.00055444972832764585 0 -0.10189122705629276 0.0012050211821545832 0 -0.10110718153633191 0.00045618631390340368 0 -0.10074503259581302 0.0023620597250744776 0 -0.09909039132982396 0.0021819916130873568 0 -0.099429048875576798 0.0032131880178612889 0 -0.098556593273749438 0.0030664045564933354 0 -0.099447476885895669 0.0041060250395656816 0 -0.10074503259581302 0.0023620597250744776 0 -0.099429048875576798 0.0032131880178612889 0 -0.099884695055179468 0.0037433497215355587 0 -0.10074503259581302 0.0023620597250744776 0 -0.099429048875576798 0.0032131880178612889 0 -0.09909039132982396 0.0021819916130873568 0 -0.10074503259581302 0.0023620597250744776 0 -0.10065932452559354 0.0036941687127977295 0 -0.099884695055179468 0.0037433497215355587 0 -0.10074503259581302 0.0023620597250744776 0 -0.10065932452559354 0.0036941687127977295 0 -0.10198369092355727 0.0022522839778834256 0 -0.10380795153483682 -0.0002509142672001332 0 -0.10300652139666847 -0.00016196869836126207 0 -0.10133286293096368 6.8930630102306641e-05 0 -0.10380795153483682 -0.0002509142672001332 0 -0.10419915220450168 -0.00023153019698791342 0 -0.10300652139666847 -0.00016196869836126207 0 -0.10300652139666847 -0.00016196869836126207 0 -0.10394885363319406 4.3513363515577055e-06 0 -0.10310562003252757 0.00025420555284304686 0 -0.10419915220450168 -0.00023153019698791342 0 -0.10300652139666847 -0.00016196869836126207 0 -0.10394885363319406 4.3513363515577055e-06 0 -0.099429048875576798 0.0032131880178612889 0 -0.09909039132982396 0.0021819916130873568 0 -0.098556593273749438 0.0030664045564933354 0 -0.10189122705629276 0.0012050211821545832 0 -0.10148596738568259 0.0016371165742032844 0 -0.10148596738568259 0.0016371165742032844 0 -0.10169634932450165 0.0013641455681591053 0 -0.10300652139666847 -0.00016196869836126207 0 -0.10170297000439678 0.00049128395592672994 0 -0.10133286293096368 6.8930630102306641e-05 0 -0.10300652139666847 -0.00016196869836126207 0 -0.10310562003252757 0.00025420555284304686 0 -0.10170297000439678 0.00049128395592672994 0 -0.10170297000439678 0.00049128395592672994 0 -0.10133286293096368 6.8930630102306641e-05 0 -0.10083855254117306 0.00065539913643162075 0 -0.10083855254117306 0.00065539913643162075 0 -0.10120373654995393 0.00094725798347149311 0 -0.10001353999012146 0.0012078835072214889 0 -0.10170297000439678 0.00049128395592672994 0 -0.10083855254117306 0.00065539913643162075 0 -0.10120373654995393 0.00094725798347149311 0 -0.098556593273749438 0.0030664045564933354 0 -0.099183852941374245 0.0045739264625100735 0 -0.099447476885895669 0.0041060250395656816 0 -0.10198683184028706 0.00016397072102928935 0 -0.10170297000439678 0.00049128395592672994 0 -0.10120373654995393 0.00094725798347149311 0 -0.10198683184028706 0.00016397072102928935 0 -0.10120373654995393 0.00094725798347149311 0 -0.10126415179594445 0.0013815744505800485 0 -0.10148596738568259 0.0016371165742032844 0 -0.10067273785309609 0.0023587758852268276 0 -0.10120373654995393 0.00094725798347149311 0 -0.10126415179594445 0.0013815744505800485 0 -0.10055444910044052 0.0015656772558821622 0 -0.10126415179594445 0.0013815744505800485 0 -0.10055444910044052 0.0015656772558821622 0 -0.10002139007963398 0.0023354641071988828 0 -0.10055444910044052 0.0015656772558821622 0 -0.10002139007963398 0.0023354641071988828 0 -0.10001353999012146 0.0012078835072214889 0 -0.10120373654995393 0.00094725798347149311 0 -0.10055444910044052 0.0015656772558821622 0 -0.10001353999012146 0.0012078835072214889 0 -0.10065932452559354 0.0036941687127977295 0 -0.099696827862096438 0.0043098466053839157 0 -0.099542785719550317 0.004819985778005716 0 -0.10065932452559354 0.0036941687127977295 0 -0.099696827862096438 0.0043098466053839157 0 -0.099884695055179468 0.0037433497215355587 0 -0.099696827862096438 0.0043098466053839157 0 -0.099884695055179468 0.0037433497215355587 0 -0.099447476885895669 0.0041060250395656816 0 -0.099429048875576798 0.0032131880178612889 0 -0.099884695055179468 0.0037433497215355587 0 -0.099447476885895669 0.0041060250395656816 0 -0.099183852941374245 0.0045739264625100735 0 -0.099254007784184431 0.0046773804298777732 0 -0.099192465009911926 0.0042075876814957761 0 -0.099696827862096438 0.0043098466053839157 0 -0.099447476885895669 0.0041060250395656816 0 -0.099254007784184431 0.0046773804298777732 0 -0.099183852941374245 0.0045739264625100735 0 -0.099447476885895669 0.0041060250395656816 0 -0.099254007784184431 0.0046773804298777732 0 -0.099696827862096438 0.0043098466053839157 0 -0.099254007784184431 0.0046773804298777732 0 -0.099542785719550317 0.004819985778005716 0 -0.099254007784184431 0.0046773804298777732 0 -0.099542785719550317 0.004819985778005716 0 -0.098798491735184221 0.0048336354809677667 0 -0.098454039859985507 0.0042491707119057739 0 -0.098798491735184221 0.0048336354809677667 0 -0.097828295288685377 0.0045132827813180662 0 -0.099254007784184431 0.0046773804298777732 0 -0.098454039859985507 0.0042491707119057739 0 -0.098798491735184221 0.0048336354809677667 0 -0.099254007784184431 0.0046773804298777732 0 -0.098454039859985507 0.0042491707119057739 0 -0.099192465009911926 0.0042075876814957761 0 -0.099192465009911926 0.0042075876814957761 0 -0.099681029673624688 0.0037750849494306324 0 -0.098991129590969784 0.0028955104687792021 0 -0.099192465009911926 0.0042075876814957761 0 -0.097782530461524769 0.002759534667069677 0 -0.098991129590969784 0.0028955104687792021 0 -0.098454039859985507 0.0042491707119057739 0 -0.099192465009911926 0.0042075876814957761 0 -0.097782530461524769 0.002759534667069677 0 -0.098454039859985507 0.0042491707119057739 0 -0.097782530461524769 0.002759534667069677 0 -0.097180929113333675 0.0035282115496846531 0 -0.10126415179594445 0.0013815744505800485 0 -0.10002139007963398 0.0023354641071988828 0 -0.10027744800067444 0.0028491387654980826 0 -0.099183852941374245 0.0045739264625100735 0 -0.099192465009911926 0.0042075876814957761 0 -0.099681029673624688 0.0037750849494306324 0 -0.10067273785309609 0.0023587758852268276 0 -0.10026277538726135 0.0026668121138849446 0 -0.10027744800067444 0.0028491387654980826 0 -0.099793443486959774 0.0029360844891528825 0 -0.099727317385486597 0.0026986662814845359 0 -0.099793443486959774 0.0029360844891528825 0 -0.098865446748947969 0.003154516690778369 0 -0.099436077537049292 0.0031592255174421303 0 -0.10002139007963398 0.0023354641071988828 0 -0.099793443486959774 0.0029360844891528825 0 -0.098865446748947969 0.003154516690778369 0 -0.10002139007963398 0.0023354641071988828 0 -0.10027744800067444 0.0028491387654980826 0 -0.099793443486959774 0.0029360844891528825 0 -0.098865446748947969 0.003154516690778369 0 -0.098557769820377422 0.0021287069157764579 0 -0.096968641783673454 0.0032290075084374522 0 -0.10002139007963398 0.0023354641071988828 0 -0.098865446748947969 0.003154516690778369 0 -0.098557769820377422 0.0021287069157764579 0 -0.098557769820377422 0.0021287069157764579 0 -0.096968641783673454 0.0032290075084374522 0 -0.096024710209734077 0.0023824667358996769 0 -0.098865446748947969 0.003154516690778369 0 -0.096968641783673454 0.0032290075084374522 0 -0.09744674172337589 0.0039008350190796407 0 -0.096968641783673454 0.0032290075084374522 0 -0.095378467758940863 0.0040341813902223349 0 -0.09744674172337589 0.0039008350190796407 0 -0.095378467758940863 0.0040341813902223349 0 -0.093156371490083142 0.0035921494117137332 0 -0.09501468531437901 0.0032209332371691537 0 -0.096968641783673454 0.0032290075084374522 0 -0.095378467758940863 0.0040341813902223349 0 -0.09501468531437901 0.0032209332371691537 0 -0.082184557287911783 -0.00031095604224717872 0 -0.078642708026653851 0.0016503386040887145 0 -0.082453660186625838 3.5208896659875647e-05 0 -0.08461547676595628 2.9371585770309849e-06 0 -0.078350196946900666 -6.7036127153323962e-07 0 -0.082453660186625838 3.5208896659875647e-05 0 -0.07866531861336809 0.00014431031419513178 0 -0.078350196946900666 -6.7036127153323962e-07 0 -0.095378467758940863 0.0040341813902223349 0 -0.093156371490083142 0.0035921494117137332 0 -0.093839806158136169 0.004878596466299779 0 -0.082184557287911783 -0.00031095604224717872 0 -0.083398239072032407 -0.0013736488950830533 0 -0.093156371490083142 0.0035921494117137332 0 -0.09501468531437901 0.0032209332371691537 0 -0.093704226471830854 0.0023845475385605645 0 -0.082453660186625838 3.5208896659875647e-05 0 -0.08461547676595628 2.9371585770309849e-06 0 -0.089857941412848905 0.00051835905859544179 0 -0.093156371490083142 0.0035921494117137332 0 -0.093704226471830854 0.0023845475385605645 0 -0.089857941412848905 0.00051835905859544179 0 -0.096968641783673454 0.0032290075084374522 0 -0.09501468531437901 0.0032209332371691537 0 -0.096024710209734077 0.0023824667358996769 0 -0.09501468531437901 0.0032209332371691537 0 -0.093704226471830854 0.0023845475385605645 0 -0.096024710209734077 0.0023824667358996769 0 -0.096024710209734077 0.0023824667358996769 0 -0.095226628384886949 0.00080109545552577079 0 -0.097466132253397661 0.0013176094968413181 0 -0.093704226471830854 0.0023845475385605645 0 -0.095226628384886949 0.00080109545552577079 0 -0.089857941412848905 0.00051835905859544179 0 -0.093704226471830854 0.0023845475385605645 0 -0.096024710209734077 0.0023824667358996769 0 -0.095226628384886949 0.00080109545552577079 0 -0.095226628384886949 0.00080109545552577079 0 -0.089857941412848905 0.00051835905859544179 0 -0.092641624818202151 0.00019937855110389917 0 -0.08461547676595628 2.9371585770309849e-06 0 -0.089857941412848905 0.00051835905859544179 0 -0.090882875580660064 -7.0485464548295175e-07 0 -0.089857941412848905 0.00051835905859544179 0 -0.092641624818202151 0.00019937855110389917 0 -0.090882875580660064 -7.0485464548295175e-07 0 -0.092641624818202151 0.00019937855110389917 0 -0.090882875580660064 -7.0485464548295175e-07 0 -0.095194462871318136 -0.0001947283786989482 0 -0.09817455301918937 -0.00047877530962032631 0 -0.095194462871318136 -0.0001947283786989482 0 -0.097989345411972503 0.00030793697991784563 0 -0.095226628384886949 0.00080109545552577079 0 -0.095194462871318136 -0.0001947283786989482 0 -0.097989345411972503 0.00030793697991784563 0 -0.095226628384886949 0.00080109545552577079 0 -0.092641624818202151 0.00019937855110389917 0 -0.095194462871318136 -0.0001947283786989482 0 -0.099885911084726928 -0.00042066310423655748 0 -0.097989345411972503 0.00030793697991784563 0 -0.099781484814587845 0.00039919094003637584 0 -0.097989345411972503 0.00030793697991784563 0 -0.098864325296802322 0.0010565513431336827 0 -0.097466132253397661 0.0013176094968413181 0 -0.097989345411972503 0.00030793697991784563 0 -0.099781484814587845 0.00039919094003637584 0 -0.098864325296802322 0.0010565513431336827 0 -0.10133286293096368 6.8930630102306641e-05 0 -0.10083855254117306 0.00065539913643162075 0 -0.099781484814587845 0.00039919094003637584 0 -0.10083855254117306 0.00065539913643162075 0 -0.099781484814587845 0.00039919094003637584 0 -0.10001353999012146 0.0012078835072214889 0 -0.099781484814587845 0.00039919094003637584 0 -0.098864325296802322 0.0010565513431336827 0 -0.10001353999012146 0.0012078835072214889 0 -0.10002139007963398 0.0023354641071988828 0 -0.098557769820377422 0.0021287069157764579 0 -0.10001353999012146 0.0012078835072214889 0 -0.098557769820377422 0.0021287069157764579 0 -0.098864325296802322 0.0010565513431336827 0 -0.10001353999012146 0.0012078835072214889 0 -0.098557769820377422 0.0021287069157764579 0 -0.098864325296802322 0.0010565513431336827 0 -0.097466132253397661 0.0013176094968413181 0 -0.098557769820377422 0.0021287069157764579 0 -0.096024710209734077 0.0023824667358996769 0 -0.097466132253397661 0.0013176094968413181 0 -0.095226628384886949 0.00080109545552577079 0 -0.097989345411972503 0.00030793697991784563 0 -0.097466132253397661 0.0013176094968413181 0 -0.10466812734590511 -9.601016667403396e-05 0 -0.1046878790431182 -2.0652957955661568e-05 0 -0.10466121725013847 -7.1727483480799246e-05 0 -0.10466812734590511 -9.601016667403396e-05 0 -0.10474373920908132 2.8924128308093201e-05 0 -0.1046878790431182 -2.0652957955661568e-05 0 -0.10466812734590511 -9.601016667403396e-05 0 -0.10466121725013847 -7.1727483480799246e-05 0 -0.10459013260094256 -0.00017052202090253341 0 -0.10466812734590511 -9.601016667403396e-05 0 -0.10474373920908132 2.8924128308093201e-05 0 -0.10482731982776033 3.2834114400669985e-05 0 -0.10474373920908132 2.8924128308093201e-05 0 -0.10482731982776033 3.2834114400669985e-05 0 -0.10483991907151249 0.00017608465956645502 0 -0.10482731982776033 3.2834114400669985e-05 0 -0.10478653376682558 6.4808267802652037e-05 0 -0.10460051921060926 -0.00013560393063809646 0 -0.10466812734590511 -9.601016667403396e-05 0 -0.10482731982776033 3.2834114400669985e-05 0 -0.10460051921060926 -0.00013560393063809646 0 -0.10466812734590511 -9.601016667403396e-05 0 -0.10460051921060926 -0.00013560393063809646 0 -0.10459013260094256 -0.00017052202090253341 0 -0.10478653376682558 6.4808267802652037e-05 0 -0.10499999699286056 -4.2137128264283349e-08 0 -0.10499896041617847 6.2011267255803602e-07 0 -0.10478653376682558 6.4808267802652037e-05 0 -0.10499999699286056 -4.2137128264283349e-08 0 -0.10494357366657546 7.809041576916029e-05 0 -0.10482731982776033 3.2834114400669985e-05 0 -0.10478653376682558 6.4808267802652037e-05 0 -0.10494357366657546 7.809041576916029e-05 0 -0.10482731982776033 3.2834114400669985e-05 0 -0.10494357366657546 7.809041576916029e-05 0 -0.10492590218281841 0.00018144061125352661 0 -0.10494357366657546 7.809041576916029e-05 0 -0.10499991038504761 1.1654828438668379e-07 0 -0.10492590218281841 0.00018144061125352661 0 -0.10499999699286056 -4.2137128264283349e-08 0 -0.10494357366657546 7.809041576916029e-05 0 -0.10499991038504761 1.1654828438668379e-07 0 -0.10499991038504761 1.1654828438668379e-07 0 -0.10492590218281841 0.00018144061125352661 0 -0.1049147534560612 0.00025234504237385877 0 -0.10492590218281841 0.00018144061125352661 0 -0.10483991907151249 0.00017608465956645502 0 -0.10480002608155202 0.00052123240201309626 0 -0.10482731982776033 3.2834114400669985e-05 0 -0.10492590218281841 0.00018144061125352661 0 -0.10483991907151249 0.00017608465956645502 0 -0.10474373920908132 2.8924128308093201e-0