<?xml version="1.0"?>
<VTKFile type="UnstructuredGrid" version="0.1" byte_order="LittleEndian">
<UnstructuredGrid>
<Piece NumberOfPoints="31898" NumberOfCells="11152">
<Points>
<DataArray type="Float64" NumberOfComponents="3" format="ascii">
-0.5 -0.5 0 -0.47620991077874902 -0.44978878706170539 0 -0.49999999999999473 -0.42132396840504388 0 -0.5 -0.5 0 -0.47160970827802529 -0.4793630013852106 0 -0.47620991077874902 -0.44978878706170539 0 -0.5 -0.5 0 -0.47160970827802529 -0.4793630013852106 0 -0.44860394795025399 -0.5 0 -0.47160970827802529 -0.4793630013852106 0 -0.44860394795025399 -0.5 0 -0.4490820238307246 -0.45820516232899983 0 -0.44860394795025399 -0.5 0 -0.4490820238307246 -0.45820516232899983 0 -0.42881687682924802 -0.47781464288736519 0 -0.4490820238307246 -0.45820516232899983 0 -0.45555437223955858 -0.42914059360647611 0 -0.4490820238307246 -0.45820516232899983 0 -0.45555437223955858 -0.42914059360647611 0 -0.43867285131603428 -0.4271457417558665 0 -0.4490820238307246 -0.45820516232899983 0 -0.43867285131603428 -0.4271457417558665 0 -0.4263356171060747 -0.44269880333887462 0 -0.47160970827802529 -0.4793630013852106 0 -0.4490820238307246 -0.45820516232899983 0 -0.47620991077874902 -0.44978878706170539 0 -0.4490820238307246 -0.45820516232899983 0 -0.47620991077874902 -0.44978878706170539 0 -0.45555437223955858 -0.42914059360647611 0 -0.47620991077874902 -0.44978878706170539 0 -0.48101336032419229 -0.41069999664450008 0 -0.45555437223955858 -0.42914059360647611 0 -0.47620991077874902 -0.44978878706170539 0 -0.49999999999999473 -0.42132396840504388 0 -0.48101336032419229 -0.41069999664450008 0 -0.49999999999999473 -0.42132396840504388 0 -0.48101336032419229 -0.41069999664450008 0 -0.5 -0.393886241813306 0 -0.49999999999999473 -0.42132396840504388 0 -0.48101336032419229 -0.41069999664450008 0 -0.5 -0.393886241813306 0 -0.47854472220918332 -0.38978458738689759 0 -0.48422759779560409 -0.37130120630367158 0 -0.5 -0.393886241813306 0 -0.5 -0.36644851522156802 0 -0.48422759779560409 -0.37130120630367158 0 -0.48101336032419229 -0.41069999664450008 0 -0.5 -0.393886241813306 0 -0.47854472220918332 -0.38978458738689759 0 -0.48101336032419229 -0.41069999664450008 0 -0.47854472220918332 -0.38978458738689759 0 -0.46202672064839212 -0.40007602488395211 0 -0.48101336032419229 -0.41069999664450008 0 -0.46202672064839212 -0.40007602488395211 0 -0.47854472220918332 -0.38978458738689759 0 -0.46725442735267431 -0.37660061361585562 0 -0.46202672064839212 -0.40007602488395211 0 -0.47854472220918332 -0.38978458738689759 0 -0.46725442735267431 -0.37660061361585562 0 -0.48422759779560409 -0.37130120630367158 0 -0.46725442735267431 -0.37660061361585562 0 -0.46202672064839212 -0.40007602488395211 0 -0.46725442735267431 -0.37660061361585562 0 -0.45645674801697989 -0.38644133236760531 0 -0.46202672064839212 -0.40007602488395211 0 -0.46725442735267431 -0.37660061361585562 0 -0.45645674801697989 -0.38644133236760531 0 -0.4540003998136638 -0.37455519391687309 0 -0.45645674801697989 -0.38644133236760531 0 -0.46202672064839212 -0.40007602488395211 0 -0.44257020456291563 -0.38918913383950271 0 -0.46202672064839212 -0.40007602488395211 0 -0.44257020456291563 -0.38918913383950271 0 -0.44727608925983742 -0.41095911152778891 0 -0.46202672064839212 -0.40007602488395211 0 -0.44257020456291563 -0.38918913383950271 0 -0.44257020456291563 -0.38918913383950271 0 -0.44727608925983742 -0.41095911152778891 0 -0.43479358559901082 -0.4041454901736512 0 -0.44257020456291563 -0.38918913383950271 0 -0.4540003998136638 -0.37455519391687309 0 -0.44172858264042247 -0.37082207246888088 0 -0.45645674801697989 -0.38644133236760531 0 -0.44257020456291563 -0.38918913383950271 0 -0.4540003998136638 -0.37455519391687309 0 -0.46202672064839212 -0.40007602488395211 0 -0.45555437223955858 -0.42914059360647611 0 -0.44727608925983742 -0.41095911152778891 0 -0.46202672064839212 -0.40007602488395211 0 -0.45555437223955858 -0.42914059360647611 0 -0.48101336032419229 -0.41069999664450008 0 -0.46202672064839212 -0.40007602488395211 0 -0.45555437223955858 -0.42914059360647611 0 -0.44727608925983742 -0.41095911152778891 0 -0.43867285131603428 -0.4271457417558665 0 -0.43676601469929588 -0.41441201227470881 0 -0.44727608925983742 -0.41095911152778891 0 -0.43676601469929588 -0.41441201227470881 0 -0.43479358559901082 -0.4041454901736512 0 -0.45555437223955858 -0.42914059360647611 0 -0.44727608925983742 -0.41095911152778891 0 -0.43867285131603428 -0.4271457417558665 0 -0.43867285131603428 -0.4271457417558665 0 -0.42681803064840879 -0.42717069814352421 0 -0.4263356171060747 -0.44269880333887462 0 -0.42681803064840879 -0.42717069814352421 0 -0.41531815884496182 -0.42985383783075998 0 -0.4263356171060747 -0.44269880333887462 0 -0.42681803064840879 -0.42717069814352421 0 -0.42624289495594048 -0.42089725947505818 0 -0.42083332353326591 -0.42146747131641099 0 -0.42681803064840879 -0.42717069814352421 0 -0.43096994786351572 -0.41951492446283251 0 -0.42624289495594048 -0.42089725947505818 0 -0.43867285131603428 -0.4271457417558665 0 -0.42681803064840879 -0.42717069814352421 0 -0.43096994786351572 -0.41951492446283251 0 -0.43867285131603428 -0.4271457417558665 0 -0.43676601469929588 -0.41441201227470881 0 -0.43096994786351572 -0.41951492446283251 0 -0.43676601469929588 -0.41441201227470881 0 -0.43096994786351572 -0.41951492446283251 0 -0.42907264086257813 -0.41311715872526122 0 -0.43676601469929588 -0.41441201227470881 0 -0.42907264086257813 -0.41311715872526122 0 -0.43479358559901082 -0.4041454901736512 0 -0.42907264086257813 -0.41311715872526122 0 -0.43479358559901082 -0.4041454901736512 0 -0.42460885511582858 -0.40417321677700252 0 -0.42907264086257813 -0.41311715872526122 0 -0.41997834854398469 -0.41180534796019508 0 -0.42907264086257813 -0.41311715872526122 0 -0.42635027777857132 -0.41543594397746519 0 -0.41997834854398469 -0.41180534796019508 0 -0.42907264086257813 -0.41311715872526122 0 -0.41997834854398469 -0.41180534796019508 0 -0.42460885511582858 -0.40417321677700252 0 -0.42635027777857132 -0.41543594397746519 0 -0.41997834854398469 -0.41180534796019508 0 -0.42635027777857132 -0.41543594397746519 0 -0.42083332353326591 -0.42146747131641099 0 -0.41997834854398469 -0.41180534796019508 0 -0.43096994786351572 -0.41951492446283251 0 -0.42624289495594048 -0.42089725947505818 0 -0.42635027777857132 -0.41543594397746519 0 -0.43096994786351572 -0.41951492446283251 0 -0.42907264086257813 -0.41311715872526122 0 -0.42635027777857132 -0.41543594397746519 0 -0.42624289495594048 -0.42089725947505818 0 -0.42635027777857132 -0.41543594397746519 0 -0.42083332353326591 -0.42146747131641099 0 -0.42083332353326591 -0.42146747131641099 0 -0.41997834854398469 -0.41180534796019508 0 -0.40992282953163789 -0.42011435591993562 0 -0.41997834854398469 -0.41180534796019508 0 -0.39756877647335259 -0.40857286797681719 0 -0.41997834854398469 -0.41180534796019508 0 -0.40992282953163789 -0.42011435591993562 0 -0.39756877647335259 -0.40857286797681719 0 -0.40992282953163789 -0.42011435591993562 0 -0.41531815884496182 -0.42985383783075998 0 -0.39591554026262499 -0.42887225451549271 0 -0.41531815884496182 -0.42985383783075998 0 -0.39591554026262499 -0.42887225451549271 0 -0.41160927495564159 -0.44339431233754628 0 -0.42083332353326591 -0.42146747131641099 0 -0.40992282953163789 -0.42011435591993562 0 -0.41531815884496182 -0.42985383783075998 0 -0.42681803064840879 -0.42717069814352421 0 -0.42083332353326591 -0.42146747131641099 0 -0.41531815884496182 -0.42985383783075998 0 -0.44257020456291563 -0.38918913383950271 0 -0.42311368847744002 -0.37830224279505142 0 -0.42594061475171041 -0.39368797999533162 0 -0.44257020456291563 -0.38918913383950271 0 -0.42311368847744002 -0.37830224279505142 0 -0.44172858264042247 -0.37082207246888088 0 -0.44257020456291563 -0.38918913383950271 0 -0.42311368847744002 -0.37830224279505142 0 -0.42311368847744002 -0.37830224279505142 0 -0.42594061475171041 -0.39368797999533162 0 -0.416587075656149 -0.38785930376960043 0 -0.44257020456291563 -0.38918913383950271 0 -0.42594061475171041 -0.39368797999533162 0 -0.43479358559901082 -0.4041454901736512 0 -0.42594061475171041 -0.39368797999533162 0 -0.43479358559901082 -0.4041454901736512 0 -0.42460885511582858 -0.40417321677700252 0 -0.41997834854398469 -0.41180534796019508 0 -0.41325908582185972 -0.39811010703057192 0 -0.39770572831670092 -0.39911486077581648 0 -0.41997834854398469 -0.41180534796019508 0 -0.39770572831670092 -0.39911486077581648 0 -0.42594061475171041 -0.39368797999533162 0 -0.42460885511582858 -0.40417321677700252 0 -0.41325908582185972 -0.39811010703057192 0 -0.41997834854398469 -0.41180534796019508 0 -0.42460885511582858 -0.40417321677700252 0 -0.41325908582185972 -0.39811010703057192 0 -0.42594061475171041 -0.39368797999533162 0 -0.41325908582185972 -0.39811010703057192 0 -0.416587075656149 -0.38785930376960043 0 -0.41325908582185972 -0.39811010703057192 0 -0.416587075656149 -0.38785930376960043 0 -0.40403491357358612 -0.38133688525744702 0 -0.42311368847744002 -0.37830224279505142 0 -0.40403491357358612 -0.38133688525744702 0 -0.40365717239196519 -0.36741535175059892 0 -0.42311368847744002 -0.37830224279505142 0 -0.416587075656149 -0.38785930376960043 0 -0.40403491357358612 -0.38133688525744702 0 -0.40403491357358612 -0.38133688525744702 0 -0.39190790742475001 -0.38540387676521748 0 -0.39770572831670092 -0.39911486077581648 0 -0.40403491357358612 -0.38133688525744702 0 -0.39190790742475001 -0.38540387676521748 0 -0.3904578797192948 -0.37473938743617019 0 -0.41325908582185972 -0.39811010703057192 0 -0.40403491357358612 -0.38133688525744702 0 -0.39770572831670092 -0.39911486077581648 0 -0.39770572831670092 -0.39911486077581648 0 -0.37543310808941849 -0.38642437359143528 0 -0.39770572831670092 -0.39911486077581648 0 -0.37515920440272033 -0.40534038799344108 0 -0.37543310808941849 -0.38642437359143528 0 -0.39770572831670092 -0.39911486077581648 0 -0.37515920440272033 -0.40534038799344108 0 -0.39756877647335259 -0.40857286797681719
[...]
<PointData Scalars="" Vectors="displacement," Tensors="">
<DataArray type="Float64" Name="displacement" NumberOfComponents="3" format="ascii">
-0.034997450464335313 -0.034998021216048669 0 -0.032625413161497849 -0.034368298502094809 0 -0.029503302348439609 -0.034995332509692577 0 -0.034997450464335313 -0.034998021216048669 0 -0.034433966339995119 -0.033715191672192668 0 -0.032625413161497849 -0.034368298502094809 0 -0.034997450464335313 -0.034998021216048669 0 -0.034433966339995119 -0.033715191672192668 0 -0.034998040299565575 -0.031405270762941882 0 -0.034433966339995119 -0.033715191672192668 0 -0.034998040299565575 -0.031405270762941882 0 -0.034633670640629749 -0.03320178309499798 0 -0.034998040299565575 -0.031405270762941882 0 -0.034633670640629749 -0.03320178309499798 0 -0.035102534860132296 -0.030764969392591008 0 -0.034203413444887115 -0.033754171023548801 0 -0.034525935251428719 -0.034302445286278918 0 -0.034633670640629749 -0.03320178309499798 0 -0.037469078153895281 -0.03339950417424143 0 -0.03769543291449115 -0.03201676536829292 0 -0.034633670640629749 -0.03320178309499798 0 -0.03769543291449115 -0.03201676536829292 0 -0.036527225113445555 -0.030922008022712638 0 -0.034433966339995119 -0.033715191672192668 0 -0.034633670640629749 -0.03320178309499798 0 -0.032625413161497849 -0.034368298502094809 0 -0.034633670640629749 -0.03320178309499798 0 -0.032625413161497849 -0.034368298502094809 0 -0.031853786951407302 -0.034956751068971434 0 -0.032625413161497849 -0.034368298502094809 0 -0.030379480032926086 -0.034619023295525818 0 -0.031853786951407302 -0.034956751068971434 0 -0.032625413161497849 -0.034368298502094809 0 -0.029503302348439609 -0.034995332509692577 0 -0.030379480032926086 -0.034619023295525818 0 -0.029492666200217302 -0.034999994667255549 0 -0.028748856069446042 -0.036317848907595929 0 -0.027572044567322256 -0.034999992694724882 0 -0.029493260143495979 -0.035000428374234199 0 -0.029838530900059477 -0.035546490848492547 0 -0.027572044567322256 -0.034999992694724882 0 -0.027289070961997598 -0.036489141339160681 0 -0.025993719957470351 -0.036095095120052982 0 -0.027572044567322256 -0.034999992694724882 0 -0.025651399670692958 -0.034999991510810222 0 -0.025993719957470351 -0.036095095120052982 0 -0.028748856069446042 -0.036317848907595929 0 -0.027572044567322256 -0.034999992694724882 0 -0.027289070961997598 -0.036489141339160681 0 -0.028748856069446042 -0.036317848907595929 0 -0.027289070961997598 -0.036489141339160681 0 -0.028013029114347571 -0.037632284628543303 0 -0.029838530900059477 -0.035546490848492547 0 -0.031290664036123531 -0.034937251483118048 0 -0.027289070961997598 -0.036489141339160681 0 -0.026367214559283071 -0.037275494446877992 0 -0.028013029114347571 -0.037632284628543303 0 -0.027289070961997598 -0.036489141339160681 0 -0.026367214559283071 -0.037275494446877992 0 -0.025993719957470351 -0.036095095120052982 0 -0.026006564843807676 -0.036145822231813729 0 -0.031290664036123531 -0.034937251483118048 0 -0.025141345335802354 -0.036999583675823788 0 -0.025117469539710332 -0.037034690309369248 0 -0.025142867606401696 -0.037028060630464092 0 -0.025141345335802354 -0.036999583675823788 0 -0.025117469539710332 -0.037034690309369248 0 -0.025060256652242967 -0.037067089628250512 0 -0.025117469539710332 -0.037034690309369248 0 -0.025142867606401696 -0.037028060630464092 0 -0.025089266990208577 -0.03704205664409066 0 -0.039316617930763791 -0.033475406790639643 0 -0.039795019926348013 -0.032244810659488969 0 -0.038691978947765542 -0.032611269526004572 0 -0.031290664036123531 -0.034937251483118048 0 -0.032013676799936594 -0.034472095620536436 0 -0.039795019926348013 -0.032244810659488969 0 -0.038691978947765542 -0.032611269526004572 0 -0.039054197382872968 -0.031820756140743249 0 -0.025089266990208577 -0.03704205664409066 0 -0.025060256652242967 -0.037067089628250512 0 -0.025044106808187517 -0.037043337479282797 0 -0.025117469539710332 -0.037034690309369248 0 -0.025089266990208577 -0.03704205664409066 0 -0.025060256652242967 -0.037067089628250512 0 -0.039316617930763791 -0.033475406790639643 0 -0.037469078153895281 -0.03339950417424143 0 -0.038691978947765542 -0.032611269526004572 0 -0.031290664036123531 -0.034937251483118048 0 -0.034525935251428719 -0.034302445286278918 0 -0.030379480032926086 -0.034619023295525818 0 -0.03023710366062262 -0.035131781306777493 0 -0.031853786951407302 -0.034956751068971434 0 -0.038691978947765542 -0.032611269526004572 0 -0.03769543291449115 -0.03201676536829292 0 -0.038512138209967135 -0.031913653202581868 0 -0.038691978947765542 -0.032611269526004572 0 -0.038512138209967135 -0.031913653202581868 0 -0.039054197382872968 -0.031820756140743249 0 -0.037469078153895281 -0.03339950417424143 0 -0.038691978947765542 -0.032611269526004572 0 -0.03769543291449115 -0.03201676536829292 0 -0.03769543291449115 -0.03201676536829292 0 -0.03766072757728172 -0.031098528283292976 0 -0.036527225113445555 -0.030922008022712638 0 -0.03766072757728172 -0.031098528283292976 0 -0.03746407462466534 -0.030222788565193996 0 -0.036527225113445555 -0.030922008022712638 0 -0.03766072757728172 -0.031098528283292976 0 -0.03810035091055556 -0.031105832238856074 0 -0.038057381635765351 -0.030673612422267231 0 -0.03766072757728172 -0.031098528283292976 0 -0.038199339028446008 -0.031488512904016386 0 -0.03810035091055556 -0.031105832238856074 0 -0.03769543291449115 -0.03201676536829292 0 -0.03766072757728172 -0.031098528283292976 0 -0.038199339028446008 -0.031488512904016386 0 -0.03769543291449115 -0.03201676536829292 0 -0.038512138209967135 -0.031913653202581868 0 -0.038199339028446008 -0.031488512904016386 0 -0.038512138209967135 -0.031913653202581868 0 -0.038199339028446008 -0.031488512904016386 0 -0.038649599544631451 -0.031434441666074307 0 -0.038512138209967135 -0.031913653202581868 0 -0.038649599544631451 -0.031434441666074307 0 -0.039054197382872968 -0.031820756140743249 0 -0.038649599544631451 -0.031434441666074307 0 -0.039054197382872968 -0.031820756140743249 0 -0.039043551081618437 -0.031330816130668841 0 -0.038203037640351767 -0.03046311768990901 0 -0.038188561963841697 -0.030156286327067381 0 -0.038649599544631451 -0.031434441666074307 0 -0.038484524703563998 -0.031161620354699774 0 -0.038830113829215723 -0.030575417912741282 0 -0.038649599544631451 -0.031434441666074307 0 -0.038754409299563898 -0.031141868106023634 0 -0.039043551081618437 -0.031330816130668841 0 -0.038172892669542463 -0.030271311828183965 0 -0.038188561963841697 -0.030156286327067381 0 -0.038484524703563998 -0.031161620354699774 0 -0.038057381635765351 -0.030673612422267231 0 -0.038780731715294184 -0.03061077269016273 0 -0.038199339028446008 -0.031488512904016386 0 -0.03810035091055556 -0.031105832238856074 0 -0.038484524703563998 -0.031161620354699774 0 -0.038199339028446008 -0.031488512904016386 0 -0.038649599544631451 -0.031434441666074307 0 -0.038484524703563998 -0.031161620354699774 0 -0.03810035091055556 -0.031105832238856074 0 -0.038484524703563998 -0.031161620354699774 0 -0.038057381635765351 -0.030673612422267231 0 -0.038057381635765351 -0.030673612422267231 0 -0.038780731715294184 -0.03061077269016273 0 -0.038162393946130406 -0.029854386898202336 0 -0.038188561963841697 -0.030156286327067381 0 -0.038380328926453648 -0.028560815553724132 0 -0.038780731715294184 -0.03061077269016273 0 -0.038162393946130406 -0.029854386898202336 0 -0.038984587811391157 -0.02896367715363769 0 -0.038162393946130406 -0.029854386898202336 0 -0.03746407462466534 -0.030222788565193996 0 -0.037549578541712113 -0.028850404509289267 0 -0.03746407462466534 -0.030222788565193996 0 -0.037549578541712113 -0.028850404509289267 0 -0.036548477949480518 -0.029925956853481855 0 -0.038057381635765351 -0.030673612422267231 0 -0.038162393946130406 -0.029854386898202336 0 -0.03746407462466534 -0.030222788565193996 0 -0.03766072757728172 -0.031098528283292976 0 -0.038057381635765351 -0.030673612422267231 0 -0.03746407462466534 -0.030222788565193996 0 -0.039795019926348013 -0.032244810659488969 0 -0.040041743843510239 -0.031298222506091912 0 -0.039485934649055934 -0.031417645024542709 0 -0.025089266990208577 -0.03704205664409066 0 -0.025039680443110522 -0.036976359986990968 0 -0.025044106808187517 -0.037043337479282797 0 -0.032013676799936594 -0.034472095620536436 0 -0.03213145209421784 -0.033842762094277647 0 -0.040041743843510239 -0.031298222506091912 0 -0.039485934649055934 -0.031417645024542709 0 -0.039664598818769971 -0.031046616420122956 0 -0.039795019926348013 -0.032244810659488969 0 -0.039485934649055934 -0.031417645024542709 0 -0.039054197382872968 -0.031820756140743249 0 -0.039485934649055934 -0.031417645024542709 0 -0.039054197382872968 -0.031820756140743249 0 -0.039043551081618437 -0.031330816130668841 0 -0.038754409299563898 -0.031141868106023634 0 -0.039288646123765945 -0.030911914486421749 0 -0.03927619963451915 -0.030381485787556863 0 -0.038188561963841697 -0.030156286327067381 0 -0.038212240441299464 -0.028986158477936633 0 -0.039485934649055934 -0.031417645024542709 0 -0.039043551081618437 -0.031330816130668841 0 -0.039288646123765945 -0.030911914486421749 0 -0.038754409299563898 -0.031141868106023634 0 -0.039043551081618437 -0.031330816130668841 0 -0.039288646123765945 -0.030911914486421749 0 -0.039485934649055934 -0.031417645024542709 0 -0.039288646123765945 -0.030911914486421749 0 -0.039664598818769971 -0.031046616420122956 0 -0.039288646123765945 -0.030911914486421749 0 -0.039664598818769971 -0.031046616420122956 0 -0.039836904565590102 -0.030575059467203188 0 -0.040041743843510239 -0.031298222506091912 0 -0.039836904565590102 -0.030575059467203188 0 -0.04034069394270326 -0.030566133035368759 0 -0.040041743843510239 -0.031298222506091912 0 -0.039664598818769971 -0.031046616420122956 0 -0.039836904565590102 -0.030575059467203188 0 -0.039836904565590102 -0.030575059467203188 0 -0.039681242066023317 -0.030237899498784696 0 -0.03927619963451915 -0.030381485787556863 0 -0.039836904565590102 -0.030575059467203188 0 -0.039681242066023317 -0.030237899498784696 0 -0.0399447369257728 -0.030206459344569673 0 -0.039288646123765945 -0.030911914486421749 0 -0.039836904565590102 -0.030575059467203188 0 -0.03927619963451915 -0.030381485787556863 0 -0.038212240441299464 -0.028986158477936633 0 -0.037607243295160166 -0.026185484063320427 0 -0.038396650174139013 -0.028242521631239872 0 -0.038002853332181209 -0.026816178151007789 0 -0.039190760335459034 -0.026832496508965013 0 -0.038396650174139013 -0.028242521631239872 0 -0.038002853332181209 -0.026816178151007789 0 -0.037799949592716341 -0.028234679046401791 0 -0.038667659569667077 -0.026108016096169553 0 -0.037607243295160166 -0.026185484063320427 0 -0.039653650498177657 -0.029813802652967993 0 -0.0399447369257728 -0.030206459344569673 0 -0.040057512610404668 -0.029849092048652347 0 -0.039681242066023317 -0.030237899498784696 0 -0.039653650498177657 -0.029813802652967993 0 -0.0399447369257728 -0.030206459344569673 0 -0.037607243295160166 -0.026185484063320427 0 -0.036466419936670796 -0.026695501025548334 0 -0.039681242066023317 -0.030237899498784696 0 -0.03927619963451915 -0.030381485787556863 0 -0.039653650498177657 -0.029813802652967993 0 -0.037600166316928862 -0.029660041929670779 0 -0.038396650174139013 -0.028242521631239872 0 -0.037799949592716341 -0.028234679046401791 0 -0.038162393946130406 -0.029854386898202336 0 -0.037549578541712113 -0.028850404509289267 0 -0.038984587811391157 -0.02896367715363769 0 -0.039203764118891128 -0.027390797368726467 0 -0.037549578541712113 -0.028850404509289267 0 -0.038984587811391157 -0.02896367715363769 0 -0.038667659569667077 -0.026108016096169553 0 -0.038380328926453648 -0.028560815553724132 0 -0.039203764118891128 -0.027390797368726467 0 -0.037549578541712113 -0.028850404509289267 0 -0.037097605343457692 -0.027374699828524134 0 -0.037549578541712113 -0.028850404509289267 0 -0.036333512524159499 -0.028643120331412312 0 -0.037097605343457692 -0.027374699828524134 0 -0.036333512524159499 -0.028643120331412312 0 -0.035030397050057158 -0.027349500062057341 0 -0.037097605343457692 -0.027374699828524134 0 -0.037549578541712113 -0.028850404509289267 0 -0.036333512524159499 -0.028643120331412312 0 -0.036548477949480518 -0.029925956853481855 0 -0.036333512524159499 -0.028643120331412312 0 -0.035580586563197299 -0.029394726351161599 0 -0.036548477949480518 -0.029925956853481855 0 -0.035995416662532254 -0.029381511284025177 0 -0.03558830308698957 -0.028195297483947415 0 -0.035556374957204491 -0.029659445261833214 0 -0.037885628981375499 -0.028205169476791341 0 -0.037618430391679336 -0.027208715283547878 0 -0.036460392597034409 -0.027436966653800989 0 -0.03665746047861268 -0.028383214158245365 0 -0.035906746998822778 -0.027642578664314736 0 -0.03665746047861268 -0.028383214158245365 0 -0.036657069462662853 -0.028409155816012225 0 -0.03665746047861268 -0.028383214158245365 0 -0.036616840545875676 -0.027623093716705988 0 -0.036333512524159499 -0.028643120331412312 0 -0.035580586563197299 -0.029394726351161599 0 -0.035305492004258282 -0.028372515464847391 0 -0.036333512524159499 -0.028643120331412312 0 -0.035305492004258282 -0.028372515464847391 0 -0.035030397050057158 -0.027349500062057341 0 -0.036616840545875676 -0.027623093716705988 0 -0.036581880513421636 -0.026459261441015305 0 -0.037618430391679336 -0.027208715283547878 0 -0.036944627863911457 -0.026846765987777896 0 -0.037350282903605779 -0.026204461458681612 0 -0.036944627863911457 -0.026846765987777896 0 -0.036460392597034409 -0.027436966653800989 0 -0.036559909273883084 -0.026186777389078587 0 -0.036460392597034409 -0.027436966653800989 0 -0.035707619859602593 -0.026067739038668908 0 -0.036559909273883084 -0.026186777389078587 0 -0.036944627863911457 -0.026846765987777896 0 -0.036559909273883084 -0.026186777389078587 0 -0.037350282903605779 -0.026204461458681612 0 -0.037618430391679336 -0.027208715283547878 0 -0.036944627863911457 -0.026846765987777896 0 -0.036460392597034409 -0.027436966653800989 0 -0.035000273825332488 -0.026667076966947888 0 -0.035906746998822778 -0.027642578664314736 0 -0.035000001533314687 -0.026666253878252742 0 -0.036460392597034409 -0.027436966653800989 0 -0.035707619859602593 -0.026067739038668908 0 -0.0349998789265323 -0.026667511553400462 0 -0.03558830308698957 -0.028195297483947415 0 -0.034999128197243191 -0.028699121763487628 0 -0.03558830308698957 -0.028195297483947415 0 -0.035556374957204491 -0.029659445261833214 0 -0.034999128197243191 -0.028699121763487628 0 -0.035556374957204491 -0.029659445261833214 0 -0.034999128197243191 -0.028699121763487628 0 -0.035102534860132296 -0.030764969392591008 0 -0.034998040299565575 -0.031405270762941882 0 -0.034999128197243191 -0.028699121763487628 0 -0.035102534860132296 -0.030764969392591008 0 -0.035556374957204491 -0.029659445261833214 0 -0.035102534860132296 -0.030764969392591008 0 -0.035476889378838722 -0.030858798730244073 0 -0.034633670640629749 -0.03320178309499798 0 -0.035102534860132296 -0.030764969392591008 0 -0.035476889378838722 -0.030858798730244073 0 -0.034633670640629749 -0.03320178309499798 0 -0.035476889378838722 -0.030858798730244073 0 -0.036527225113445555 -0.030922008022712638 0 -0.035476889378838722 -0.030858798730244073 0 -0.036527225113445555 -0.030922008022712638 0 -0.035985768235981506 -0.030156106410706551 0 -0.036527225113445555 -0.030922008022712638 0 -0.036548477949480518 -0.029925956853481855 0 -0.035985768235981506 -0.030156106410706551 0 -0.03746407462466534 -0.030222788565193996 0 -0.036527225113445555 -0.030922008022712638 0 -0.036548477949480518 -0.029925956853481855 0 -0.035959121840630555 -0.029393776458770584 0 -0.036548477949480518 -0.029925956853481855 0 -0.035984478411720519 -0.029529201808278695 0 -0.036548477949480518 -0.029925956853481855 0 -0.035984478411720519 -0.029529201808278695 0 -0.035985768235981506 -0.030156106410706551 0 -0.03665746047861268 -0.028383214158245365 0 -0.036662035744423595 -0.028762236630939644 0 -0.035556374957204491 -0.029659445261833214 0 -0.035984478411720519 -0.029529201808278695 0 -0.035985768235981506 -0.030156106410706551 0 -0.035995416662532254 -0.029381511284025177 0 -0.035556374957204491 -0.029659445261833214 0 -0.035984478411720519 -0.029529201808278695 0 -0.035556374957204491 -0.029659445261833214 0 -0.035476889378838722 -0.030858798730244073 0 -0.035985768235981506 -0.030156106410706551 0 -0.015966741726965616 -0.037507266529597752 0 -0.012998603734741265 -0.035732746496602547 0 -0.017537908347762161 -0.037671386069024287 0 -0.017438963069193472 -0.039742682770273617 0 -0.01633886727909625 -0.038149296359450253 0 -0.019212273168326272 -0.038315640431951549 0 -0.017857320462182663 -0.037864464622720702 0 -0.017735149696952657 -0.039393229811586813 0 -0.019212273168326272 -0.038315640431951549 0 -0.019135424264395309 -0.039646075321743662 0 -0.017735149696952657 -0.039393229811586813 0 -0.019212273168326272 -0.038315640431951549 0 -0.020445503985753621 -0.038898120861624169 0 -0.019135424264395309 -0.039646075321743662 0 -0.019212273168326272 -0.038315640431951549 0 -0.018703972388035377 -0.037132149983533529 0 -0.01977176944507951 -0.037000483367229269 0 -0.019212273168326272 -0.038315640431951549 0 -0.018703972388035377 -0.037132149983533529 0 -0.017857320462182663 -0.037864464622720702 0 -0.015966741726965616 -0.037507266529597752 0 -0.016757612694073273 -0.036719295142894327 0 -0.018703972388035377 -0.037132149983533529 0 -0.017857320462182663 -0.037864464622720702 0 -0.017905447649808268 -0.036254312600792822 0 -0.017537908347762161 -0.037671386069024287 0 -0.017905447649808268 -0.036254312600792822 0 -0.016129299319132151 -0.036579393448059244 0 -0.017905447649808268 -0.036254312600792822 0 -0.017968596728251414 -0.034999666068778613 0 -0.019137266374553187 -0.03600653478805492 0 -0.017905447649808268 -0.036254312600792822 0 -0.017968596728251414 -0.034999666068778613 0 -0.016781566806887312 -0.035658079522507609 0 -0.017968596728251414 -0.034999666068778613 0 -0.019137266374553187 -0.03600653478805492 0 -0.019889427407423322 -0.034999938726879565 0 -0.018703972388035377 -0.037132149983533529 0 -0.017905447649808268 -0.036254312600792822 0 -0.019137266374553187 -0.03600653478805492 0 -0.018703972388035377 -0.037132149983533529 0 -0.019137266374553187 -0.03600653478805492 0 -0.01977176944507951 -0.037000483367229269 0 -0.01977176944507951 -0.037000483367229269 0 -0.020411215006981526 -0.03590203876988917 0 -0.020864894803144057 -0.0368308057877373 0 -0.019137266374553187 -0.03600653478805492 0 -0.01977176944507951 -0.037000483367229269 0 -0.020411215006981526 -0.03590203876988917 0 -0.019889427407423322 -0.034999938726879565 0 -0.020411215006981526 -0.03590203876988917 0 -0.021810052021515237 -0.034999931881573548 0 -0.019137266374553187 -0.03600653478805492 0 -0.019889427407423322 -0.034999938726879565 0 -0.020411215006981526 -0.03590203876988917 0 -0.020411215006981526 -0.03590203876988917 0 -0.021810052021515237 -0.034999931881573548 0 -0.021405160293817272 -0.036101808546439441 0 -0.021405160293817272 -0.036101808546439441 0 -0.020864894803144057 -0.0368308057877373 0 -0.02202034141537346 -0.036778668768525292 0 -0.020411215006981526 -0.03590203876988917 0 -0.021405160293817272 -0.036101808546439441 0 -0.020864894803144057 -0.0368308057877373 0 -0.020864894803144057 -0.0368308057877373 0 -0.021437668065553837 -0.037534143950648149 0 -0.02202034141537346 -0.036778668768525292 0 -0.021437668065553837 -0.037534143950648149 0 -0.021214892986649823 -0.038470689209734017 0 -0.021953111251254334 -0.038114064659397026 0 -0.021437668065553837 -0.037534143950648149 0 -0.020467100302821842 -0.037834036472214429 0 -0.021214892986649823 -0.038470689209734017 0 -0.020864894803144057 -0.0368308057877373 0 -0.021437668065553837 -0.037534143950648149 0 -0.020467100302821842 -0.037834036472214429 0 -0.019212273168326272 -0.038315640431951549 0 -0.01977176944507951 -0.037000483367229269 0 -0.020467100302821842 -0.037834036472214429 0 -0.01977176944507951 -0.037000483367229269 