<?xml version="1.0"?>
<VTKFile type="UnstructuredGrid" version="0.1" byte_order="LittleEndian">
<UnstructuredGrid>
<Piece NumberOfPoints="31898" NumberOfCells="11152">
<Points>
<DataArray type="Float64" NumberOfComponents="3" format="ascii">
-0.5 -0.5 0 -0.47620991077874902 -0.44978878706170539 0 -0.49999999999999473 -0.42132396840504388 0 -0.5 -0.5 0 -0.47160970827802529 -0.4793630013852106 0 -0.47620991077874902 -0.44978878706170539 0 -0.5 -0.5 0 -0.47160970827802529 -0.4793630013852106 0 -0.44860394795025399 -0.5 0 -0.47160970827802529 -0.4793630013852106 0 -0.44860394795025399 -0.5 0 -0.4490820238307246 -0.45820516232899983 0 -0.44860394795025399 -0.5 0 -0.4490820238307246 -0.45820516232899983 0 -0.42881687682924802 -0.47781464288736519 0 -0.4490820238307246 -0.45820516232899983 0 -0.45555437223955858 -0.42914059360647611 0 -0.4490820238307246 -0.45820516232899983 0 -0.45555437223955858 -0.42914059360647611 0 -0.43867285131603428 -0.4271457417558665 0 -0.4490820238307246 -0.45820516232899983 0 -0.43867285131603428 -0.4271457417558665 0 -0.4263356171060747 -0.44269880333887462 0 -0.47160970827802529 -0.4793630013852106 0 -0.4490820238307246 -0.45820516232899983 0 -0.47620991077874902 -0.44978878706170539 0 -0.4490820238307246 -0.45820516232899983 0 -0.47620991077874902 -0.44978878706170539 0 -0.45555437223955858 -0.42914059360647611 0 -0.47620991077874902 -0.44978878706170539 0 -0.48101336032419229 -0.41069999664450008 0 -0.45555437223955858 -0.42914059360647611 0 -0.47620991077874902 -0.44978878706170539 0 -0.49999999999999473 -0.42132396840504388 0 -0.48101336032419229 -0.41069999664450008 0 -0.49999999999999473 -0.42132396840504388 0 -0.48101336032419229 -0.41069999664450008 0 -0.5 -0.393886241813306 0 -0.49999999999999473 -0.42132396840504388 0 -0.48101336032419229 -0.41069999664450008 0 -0.5 -0.393886241813306 0 -0.47854472220918332 -0.38978458738689759 0 -0.48422759779560409 -0.37130120630367158 0 -0.5 -0.393886241813306 0 -0.5 -0.36644851522156802 0 -0.48422759779560409 -0.37130120630367158 0 -0.48101336032419229 -0.41069999664450008 0 -0.5 -0.393886241813306 0 -0.47854472220918332 -0.38978458738689759 0 -0.48101336032419229 -0.41069999664450008 0 -0.47854472220918332 -0.38978458738689759 0 -0.46202672064839212 -0.40007602488395211 0 -0.48101336032419229 -0.41069999664450008 0 -0.46202672064839212 -0.40007602488395211 0 -0.47854472220918332 -0.38978458738689759 0 -0.46725442735267431 -0.37660061361585562 0 -0.46202672064839212 -0.40007602488395211 0 -0.47854472220918332 -0.38978458738689759 0 -0.46725442735267431 -0.37660061361585562 0 -0.48422759779560409 -0.37130120630367158 0 -0.46725442735267431 -0.37660061361585562 0 -0.46202672064839212 -0.40007602488395211 0 -0.46725442735267431 -0.37660061361585562 0 -0.45645674801697989 -0.38644133236760531 0 -0.46202672064839212 -0.40007602488395211 0 -0.46725442735267431 -0.37660061361585562 0 -0.45645674801697989 -0.38644133236760531 0 -0.4540003998136638 -0.37455519391687309 0 -0.45645674801697989 -0.38644133236760531 0 -0.46202672064839212 -0.40007602488395211 0 -0.44257020456291563 -0.38918913383950271 0 -0.46202672064839212 -0.40007602488395211 0 -0.44257020456291563 -0.38918913383950271 0 -0.44727608925983742 -0.41095911152778891 0 -0.46202672064839212 -0.40007602488395211 0 -0.44257020456291563 -0.38918913383950271 0 -0.44257020456291563 -0.38918913383950271 0 -0.44727608925983742 -0.41095911152778891 0 -0.43479358559901082 -0.4041454901736512 0 -0.44257020456291563 -0.38918913383950271 0 -0.4540003998136638 -0.37455519391687309 0 -0.44172858264042247 -0.37082207246888088 0 -0.45645674801697989 -0.38644133236760531 0 -0.44257020456291563 -0.38918913383950271 0 -0.4540003998136638 -0.37455519391687309 0 -0.46202672064839212 -0.40007602488395211 0 -0.45555437223955858 -0.42914059360647611 0 -0.44727608925983742 -0.41095911152778891 0 -0.46202672064839212 -0.40007602488395211 0 -0.45555437223955858 -0.42914059360647611 0 -0.48101336032419229 -0.41069999664450008 0 -0.46202672064839212 -0.40007602488395211 0 -0.45555437223955858 -0.42914059360647611 0 -0.44727608925983742 -0.41095911152778891 0 -0.43867285131603428 -0.4271457417558665 0 -0.43676601469929588 -0.41441201227470881 0 -0.44727608925983742 -0.41095911152778891 0 -0.43676601469929588 -0.41441201227470881 0 -0.43479358559901082 -0.4041454901736512 0 -0.45555437223955858 -0.42914059360647611 0 -0.44727608925983742 -0.41095911152778891 0 -0.43867285131603428 -0.4271457417558665 0 -0.43867285131603428 -0.4271457417558665 0 -0.42681803064840879 -0.42717069814352421 0 -0.4263356171060747 -0.44269880333887462 0 -0.42681803064840879 -0.42717069814352421 0 -0.41531815884496182 -0.42985383783075998 0 -0.4263356171060747 -0.44269880333887462 0 -0.42681803064840879 -0.42717069814352421 0 -0.42624289495594048 -0.42089725947505818 0 -0.42083332353326591 -0.42146747131641099 0 -0.42681803064840879 -0.42717069814352421 0 -0.43096994786351572 -0.41951492446283251 0 -0.42624289495594048 -0.42089725947505818 0 -0.43867285131603428 -0.4271457417558665 0 -0.42681803064840879 -0.42717069814352421 0 -0.43096994786351572 -0.41951492446283251 0 -0.43867285131603428 -0.4271457417558665 0 -0.43676601469929588 -0.41441201227470881 0 -0.43096994786351572 -0.41951492446283251 0 -0.43676601469929588 -0.41441201227470881 0 -0.43096994786351572 -0.41951492446283251 0 -0.42907264086257813 -0.41311715872526122 0 -0.43676601469929588 -0.41441201227470881 0 -0.42907264086257813 -0.41311715872526122 0 -0.43479358559901082 -0.4041454901736512 0 -0.42907264086257813 -0.41311715872526122 0 -0.43479358559901082 -0.4041454901736512 0 -0.42460885511582858 -0.40417321677700252 0 -0.42907264086257813 -0.41311715872526122 0 -0.41997834854398469 -0.41180534796019508 0 -0.42907264086257813 -0.41311715872526122 0 -0.42635027777857132 -0.41543594397746519 0 -0.41997834854398469 -0.41180534796019508 0 -0.42907264086257813 -0.41311715872526122 0 -0.41997834854398469 -0.41180534796019508 0 -0.42460885511582858 -0.40417321677700252 0 -0.42635027777857132 -0.41543594397746519 0 -0.41997834854398469 -0.41180534796019508 0 -0.42635027777857132 -0.41543594397746519 0 -0.42083332353326591 -0.42146747131641099 0 -0.41997834854398469 -0.41180534796019508 0 -0.43096994786351572 -0.41951492446283251 0 -0.42624289495594048 -0.42089725947505818 0 -0.42635027777857132 -0.41543594397746519 0 -0.43096994786351572 -0.41951492446283251 0 -0.42907264086257813 -0.41311715872526122 0 -0.42635027777857132 -0.41543594397746519 0 -0.42624289495594048 -0.42089725947505818 0 -0.42635027777857132 -0.41543594397746519 0 -0.42083332353326591 -0.42146747131641099 0 -0.42083332353326591 -0.42146747131641099 0 -0.41997834854398469 -0.41180534796019508 0 -0.40992282953163789 -0.42011435591993562 0 -0.41997834854398469 -0.41180534796019508 0 -0.39756877647335259 -0.40857286797681719 0 -0.41997834854398469 -0.41180534796019508 0 -0.40992282953163789 -0.42011435591993562 0 -0.39756877647335259 -0.40857286797681719 0 -0.40992282953163789 -0.42011435591993562 0 -0.41531815884496182 -0.42985383783075998 0 -0.39591554026262499 -0.42887225451549271 0 -0.41531815884496182 -0.42985383783075998 0 -0.39591554026262499 -0.42887225451549271 0 -0.41160927495564159 -0.44339431233754628 0 -0.42083332353326591 -0.42146747131641099 0 -0.40992282953163789 -0.42011435591993562 0 -0.41531815884496182 -0.42985383783075998 0 -0.42681803064840879 -0.42717069814352421 0 -0.42083332353326591 -0.42146747131641099 0 -0.41531815884496182 -0.42985383783075998 0 -0.44257020456291563 -0.38918913383950271 0 -0.42311368847744002 -0.37830224279505142 0 -0.42594061475171041 -0.39368797999533162 0 -0.44257020456291563 -0.38918913383950271 0 -0.42311368847744002 -0.37830224279505142 0 -0.44172858264042247 -0.37082207246888088 0 -0.44257020456291563 -0.38918913383950271 0 -0.42311368847744002 -0.37830224279505142 0 -0.42311368847744002 -0.37830224279505142 0 -0.42594061475171041 -0.39368797999533162 0 -0.416587075656149 -0.38785930376960043 0 -0.44257020456291563 -0.38918913383950271 0 -0.42594061475171041 -0.39368797999533162 0 -0.43479358559901082 -0.4041454901736512 0 -0.42594061475171041 -0.39368797999533162 0 -0.43479358559901082 -0.4041454901736512 0 -0.42460885511582858 -0.40417321677700252 0 -0.41997834854398469 -0.41180534796019508 0 -0.41325908582185972 -0.39811010703057192 0 -0.39770572831670092 -0.39911486077581648 0 -0.41997834854398469 -0.41180534796019508 0 -0.39770572831670092 -0.39911486077581648 0 -0.42594061475171041 -0.39368797999533162 0 -0.42460885511582858 -0.40417321677700252 0 -0.41325908582185972 -0.39811010703057192 0 -0.41997834854398469 -0.41180534796019508 0 -0.42460885511582858 -0.40417321677700252 0 -0.41325908582185972 -0.39811010703057192 0 -0.42594061475171041 -0.39368797999533162 0 -0.41325908582185972 -0.39811010703057192 0 -0.416587075656149 -0.38785930376960043 0 -0.41325908582185972 -0.39811010703057192 0 -0.416587075656149 -0.38785930376960043 0 -0.40403491357358612 -0.38133688525744702 0 -0.42311368847744002 -0.37830224279505142 0 -0.40403491357358612 -0.38133688525744702 0 -0.40365717239196519 -0.36741535175059892 0 -0.42311368847744002 -0.37830224279505142 0 -0.416587075656149 -0.38785930376960043 0 -0.40403491357358612 -0.38133688525744702 0 -0.40403491357358612 -0.38133688525744702 0 -0.39190790742475001 -0.38540387676521748 0 -0.39770572831670092 -0.39911486077581648 0 -0.40403491357358612 -0.38133688525744702 0 -0.39190790742475001 -0.38540387676521748 0 -0.3904578797192948 -0.37473938743617019 0 -0.41325908582185972 -0.39811010703057192 0 -0.40403491357358612 -0.38133688525744702 0 -0.39770572831670092 -0.39911486077581648 0 -0.39770572831670092 -0.39911486077581648 0 -0.37543310808941849 -0.38642437359143528 0 -0.39770572831670092 -0.39911486077581648 0 -0.37515920440272033 -0.40534038799344108 0 -0.37543310808941849 -0.38642437359143528 0 -0.39770572831670092 -0.39911486077581648 0 -0.37515920440272033 -0.40534038799344108 0 -0.39756877647335259 -0.40857286797681719
[...]
<PointData Scalars="" Vectors="displacement," Tensors="">
<DataArray type="Float64" Name="displacement" NumberOfComponents="3" format="ascii">
-0.034997112227126682 -2.6403038543056795e-07 0 -0.034109487990928535 -0.0001739954692192234 0 -0.034997643728514972 -7.3516582319578126e-07 0 -0.034997112227126682 -2.6403038543056795e-07 0 -0.033462509016808188 -0.00011347221330019639 0 -0.034109487990928535 -0.0001739954692192234 0 -0.034997112227126682 -2.6403038543056795e-07 0 -0.033462509016808188 -0.00011347221330019639 0 -0.031404204168845984 -2.4389894878802879e-07 0 -0.033462509016808188 -0.00011347221330019639 0 -0.031404204168845984 -2.4389894878802879e-07 0 -0.032827574419880164 9.7100016642822471e-05 0 -0.031404204168845984 -2.4389894878802879e-07 0 -0.032827574419880164 9.7100016642822471e-05 0 -0.031199165712468051 -6.6777564213294887e-05 0 -0.033029183321927058 0.00022453661793395483 0 -0.033253906964088142 0.00025852087537105503 0 -0.032827574419880164 9.7100016642822471e-05 0 -0.03216642886548203 0.00039236722226223088 0 -0.032106564493777245 0.00012695829177832347 0 -0.032827574419880164 9.7100016642822471e-05 0 -0.032106564493777245 0.00012695829177832347 0 -0.032184541858291491 8.5144501810908426e-06 0 -0.033462509016808188 -0.00011347221330019639 0 -0.032827574419880164 9.7100016642822471e-05 0 -0.034109487990928535 -0.0001739954692192234 0 -0.032827574419880164 9.7100016642822471e-05 0 -0.034109487990928535 -0.0001739954692192234 0 -0.034440416654477342 0.00028018925850667816 0 -0.034109487990928535 -0.0001739954692192234 0 -0.034884985338354012 -2.4681667490144123e-05 0 -0.034440416654477342 0.00028018925850667816 0 -0.034109487990928535 -0.0001739954692192234 0 -0.034997643728514972 -7.3516582319578126e-07 0 -0.034884985338354012 -2.4681667490144123e-05 0 -0.034999998480047388 1.6200042011931477e-10 0 -0.034997739223253541 -2.5836633270531151e-07 0 -0.034999996736095947 -4.3863025382660595e-10 0 -0.034999576575956752 1.7741153182744657e-07 0 -0.034634235474632236 0.00014896930775886312 0 -0.034999996736095947 -4.3863025382660595e-10 0 -0.034997273337958767 -6.1861658856208611e-07 0 -0.03499874529314409 -1.2340559853261287e-06 0 -0.034999996736095947 -4.3863025382660595e-10 0 -0.034999996210346065 -2.0035883855505866e-09 0 -0.03499874529314409 -1.2340559853261287e-06 0 -0.034997739223253541 -2.5836633270531151e-07 0 -0.034999996736095947 -4.3863025382660595e-10 0 -0.034997273337958767 -6.1861658856208611e-07 0 -0.034997739223253541 -2.5836633270531151e-07 0 -0.034997273337958767 -6.1861658856208611e-07 0 -0.03499428111196784 -1.7714554029456732e-07 0 -0.034634235474632236 0.00014896930775886312 0 -0.033665210531814295 0.00013766819747043003 0 -0.034997273337958767 -6.1861658856208611e-07 0 -0.034996648790407127 -4.010187153408878e-07 0 -0.03499428111196784 -1.7714554029456732e-07 0 -0.034997273337958767 -6.1861658856208611e-07 0 -0.034996648790407127 -4.010187153408878e-07 0 -0.03499874529314409 -1.2340559853261287e-06 0 -0.034262085340291612 4.8815109264913313e-05 0 -0.033665210531814295 0.00013766819747043003 0 -0.03352078531146252 0.00014128084256814015 0 -0.033372888573043914 0.00032302827459166532 0 -0.033159126137191172 0.00023631096735920619 0 -0.03352078531146252 0.00014128084256814015 0 -0.033372888573043914 0.00032302827459166532 0 -0.033567602565967573 0.00036860479740409834 0 -0.033372888573043914 0.00032302827459166532 0 -0.033159126137191172 0.00023631096735920619 0 -0.03333519550496368 0.00054242845613737566 0 -0.031800226950693081 0.00046787709993829918 0 -0.031656034817181926 0.00023622045995662372 0 -0.031935241492889781 0.0002786978889426582 0 -0.033665210531814295 0.00013766819747043003 0 -0.032732931497898632 0.00026841439242843954 0 -0.031656034817181926 0.00023622045995662372 0 -0.031935241492889781 0.0002786978889426582 0 -0.03185368289219552 0.00013595055939679196 0 -0.03333519550496368 0.00054242845613737566 0 -0.033567602565967573 0.00036860479740409834 0 -0.03362546172699233 0.00055712302547333999 0 -0.033372888573043914 0.00032302827459166532 0 -0.03333519550496368 0.00054242845613737566 0 -0.033567602565967573 0.00036860479740409834 0 -0.031800226950693081 0.00046787709993829918 0 -0.03216642886548203 0.00039236722226223088 0 -0.031935241492889781 0.0002786978889426582 0 -0.033665210531814295 0.00013766819747043003 0 -0.033253906964088142 0.00025852087537105503 0 -0.034884985338354012 -2.4681667490144123e-05 0 -0.03500693903936257 0.0002483438202693385 0 -0.034440416654477342 0.00028018925850667816 0 -0.031935241492889781 0.0002786978889426582 0 -0.032106564493777245 0.00012695829177832347 0 -0.031989505021746419 0.00014899153183427712 0 -0.031935241492889781 0.0002786978889426582 0 -0.031989505021746419 0.00014899153183427712 0 -0.03185368289219552 0.00013595055939679196 0 -0.03216642886548203 0.00039236722226223088 0 -0.031935241492889781 0.0002786978889426582 0 -0.032106564493777245 0.00012695829177832347 0 -0.032106564493777245 0.00012695829177832347 0 -0.032103438963186383 6.5731991837995142e-05 0 -0.032184541858291491 8.5144501810908426e-06 0 -0.032103438963186383 6.5731991837995142e-05 0 -0.032109987555087836 9.5166282938205583e-05 0 -0.032184541858291491 8.5144501810908426e-06 0 -0.032103438963186383 6.5731991837995142e-05 0 -0.032068148801211241 6.9627472379246656e-05 0 -0.032077918706365054 7.4750782681171611e-05 0 -0.032103438963186383 6.5731991837995142e-05 0 -0.032052765092735941 9.0626139785947109e-05 0 -0.032068148801211241 6.9627472379246656e-05 0 -0.032106564493777245 0.00012695829177832347 0 -0.032103438963186383 6.5731991837995142e-05 0 -0.032052765092735941 9.0626139785947109e-05 0 -0.032106564493777245 0.00012695829177832347 0 -0.031989505021746419 0.00014899153183427712 0 -0.032052765092735941 9.0626139785947109e-05 0 -0.031989505021746419 0.00014899153183427712 0 -0.032052765092735941 9.0626139785947109e-05 0 -0.031993155082485146 7.4856092832078616e-05 0 -0.031989505021746419 0.00014899153183427712 0 -0.031993155082485146 7.4856092832078616e-05 0 -0.03185368289219552 0.00013595055939679196 0 -0.031993155082485146 7.4856092832078616e-05 0 -0.03185368289219552 0.00013595055939679196 0 -0.031851709387547403 2.787609365343636e-06 0 -0.030321034666982525 0.00043892719029875476 0 -0.030166310123308546 0.00052495261750215723 0 -0.031993155082485146 7.4856092832078616e-05 0 -0.032036587958839347 5.6932752525451041e-05 0 -0.031999339264220689 -8.4255418766787189e-06 0 -0.031993155082485146 7.4856092832078616e-05 0 -0.031963035638367776 -6.2298822840675281e-05 0 -0.031851709387547403 2.787609365343636e-06 0 -0.030312733358728708 0.00056596598667794853 0 -0.030166310123308546 0.00052495261750215723 0 -0.032036587958839347 5.6932752525451041e-05 0 -0.032077918706365054 7.4750782681171611e-05 0 -0.032074615286488029 7.851178827401279e-05 0 -0.032052765092735941 9.0626139785947109e-05 0 -0.032068148801211241 6.9627472379246656e-05 0 -0.032036587958839347 5.6932752525451041e-05 0 -0.032052765092735941 9.0626139785947109e-05 0 -0.031993155082485146 7.4856092832078616e-05 0 -0.032036587958839347 5.6932752525451041e-05 0 -0.032068148801211241 6.9627472379246656e-05 0 -0.032036587958839347 5.6932752525451041e-05 0 -0.032077918706365054 7.4750782681171611e-05 0 -0.032077918706365054 7.4750782681171611e-05 0 -0.032074615286488029 7.851178827401279e-05 0 -0.032082542870143484 9.6311966638668977e-05 0 -0.030166310123308546 0.00052495261750215723 0 -0.029239402702207238 0.00045625638439597587 0 -0.032074615286488029 7.851178827401279e-05 0 -0.032082542870143484 9.6311966638668977e-05 0 -0.032081554161191857 0.00011710544879001426 0 -0.032082542870143484 9.6311966638668977e-05 0 -0.032109987555087836 9.5166282938205583e-05 0 -0.032075449956705776 0.00012508573334546081 0 -0.032109987555087836 9.5166282938205583e-05 0 -0.032075449956705776 0.00012508573334546081 0 -0.032103906711416601 0.00015864712137665036 0 -0.032077918706365054 7.4750782681171611e-05 0 -0.032082542870143484 9.6311966638668977e-05 0 -0.032109987555087836 9.5166282938205583e-05 0 -0.032103438963186383 6.5731991837995142e-05 0 -0.032077918706365054 7.4750782681171611e-05 0 -0.032109987555087836 9.5166282938205583e-05 0 -0.031656034817181926 0.00023622045995662372 0 -0.031477820360113186 -1.7197094793919281e-05 0 -0.031702157738617336 2.0019864793790106e-05 0 -0.03333519550496368 0.00054242845613737566 0 -0.033508947715758547 0.0008307656397727875 0 -0.03362546172699233 0.00055712302547333999 0 -0.032732931497898632 0.00026841439242843954 0 -0.032277779543074939 0.00051108873234455125 0 -0.031477820360113186 -1.7197094793919281e-05 0 -0.031702157738617336 2.0019864793790106e-05 0 -0.031609018029876146 -0.00010788813526393255 0 -0.031656034817181926 0.00023622045995662372 0 -0.031702157738617336 2.0019864793790106e-05 0 -0.03185368289219552 0.00013595055939679196 0 -0.031702157738617336 2.0019864793790106e-05 0 -0.03185368289219552 0.00013595055939679196 0 -0.031851709387547403 2.787609365343636e-06 0 -0.031963035638367776 -6.2298822840675281e-05 0 -0.031758749524509709 -0.00015640343123086008 0 -0.031769440167509044 -0.00038357765606043912 0 -0.030166310123308546 0.00052495261750215723 0 -0.029290799992520655 0.00049466523403241197 0 -0.031702157738617336 2.0019864793790106e-05 0 -0.031851709387547403 2.787609365343636e-06 0 -0.031758749524509709 -0.00015640343123086008 0 -0.031963035638367776 -6.2298822840675281e-05 0 -0.031851709387547403 2.787609365343636e-06 0 -0.031758749524509709 -0.00015640343123086008 0 -0.031702157738617336 2.0019864793790106e-05 0 -0.031758749524509709 -0.00015640343123086008 0 -0.031609018029876146 -0.00010788813526393255 0 -0.031758749524509709 -0.00015640343123086008 0 -0.031609018029876146 -0.00010788813526393255 0 -0.031498523851822245 -0.00027996641062052888 0 -0.031477820360113186 -1.7197094793919281e-05 0 -0.031498523851822245 -0.00027996641062052888 0 -0.031313718589505164 -0.00028209289843853441 0 -0.031477820360113186 -1.7197094793919281e-05 0 -0.031609018029876146 -0.00010788813526393255 0 -0.031498523851822245 -0.00027996641062052888 0 -0.031498523851822245 -0.00027996641062052888 0 -0.031548539525708748 -0.00048009626577843789 0 -0.031769440167509044 -0.00038357765606043912 0 -0.031498523851822245 -0.00027996641062052888 0 -0.031548539525708748 -0.00048009626577843789 0 -0.031366393106726016 -0.00050504121315123095 0 -0.031758749524509709 -0.00015640343123086008 0 -0.031498523851822245 -0.00027996641062052888 0 -0.031769440167509044 -0.00038357765606043912 0 -0.029290799992520655 0.00049466523403241197 0 -0.02665760388588272 0.0006841402612767257 0 -0.028291716782821358 0.00054955337612914306 0 -0.028441511647503574 -1.75833201081024e-05 0 -0.027963645304094151 -1.0062194697825454e-05 0 -0.028291716782821358 0.00054955337612914306 0 -0.028441511647503574 -1.75833201081024e-05 0 -0.028530591838773042 0.00054570546084322118 0 -0.026748958552250932 0.00010910331718509523 0 -0.02665760388588272 0.0006841402612767257 0 -0.031556136503997273 -0.00075602578875570714 0 -0.031366393106726016 -0.00050504121315123095 0 -0.031260372692068598 -0.00075847822026941288 0 -0.031548539525708748 -0.00048009626577843789 0 -0.031556136503997273 -0.00075602578875570714 0 -0.031366393106726016 -0.00050504121315123095 0 -0.02665760388588272 0.0006841402612767257 0 -0.028181221196314568 0.00042762822389808328 0 -0.031548539525708748 -0.00048009626577843789 0 -0.031769440167509044 -0.00038357765606043912 0 -0.031556136503997273 -0.00075602578875570714 0 -0.028623250246668879 0.0011051550125791934 0 -0.028291716782821358 0.00054955337612914306 0 -0.028530591838773042 0.00054570546084322118 0 -0.032082542870143484 9.6311966638668977e-05 0 -0.032075449956705776 0.00012508573334546081 0 -0.032081554161191857 0.00011710544879001426 0 -0.032064748477268382 0.00013125697608275757 0 -0.032075449956705776 0.00012508573334546081 0 -0.032081554161191857 0.00011710544879001426 0 -0.026748958552250932 0.00010910331718509523 0 -0.029239402702207238 0.00045625638439597587 0 -0.032064748477268382 0.00013125697608275757 0 -0.032075449956705776 0.00012508573334546081 0 -0.032063068979116094 0.00013805210916027487 0 -0.032075449956705776 0.00012508573334546081 0 -0.032073065462742661 0.00013654997156123082 0 -0.032063068979116094 0.00013805210916027487 0 -0.032073065462742661 0.00013654997156123082 0 -0.032039141328033566 0.00015067487193704462 0 -0.032063068979116094 0.00013805210916027487 0 -0.032075449956705776 0.00012508573334546081 0 -0.032073065462742661 0.00013654997156123082 0 -0.032103906711416601 0.00015864712137665036 0 -0.032073065462742661 0.00013654997156123082 0 -0.032072328426187187 0.00014162194299462719 0 -0.032103906711416601 0.00015864712137665036 0 -0.031653979751994896 0.0006000398563585492 0 -0.029692062988840331 0.00072462531816778943 0 -0.031049225413527622 0.00020390898911720596 0 -0.023877741349417 0.0015592481400448686 0 -0.024067380005862751 0.00081396093860784929 0 -0.024949866881212809 0.0010064271901734159 0 -0.028803185281689448 -0.00031766183596306354 0 -0.027353391386972598 0.00035278278198755977 0 -0.028803185281689448 -0.00031766183596306354 0 -0.028825435354587255 -0.00031185714131816395 0 -0.028803185281689448 -0.00031766183596306354 0 -0.027715588982037642 0.00032061275142222171 0 -0.032073065462742661 0.00013654997156123082 0 -0.032072328426187187 0.00014162194299462719 0 -0.032053867176474217 0.00014065079714662915 0 -0.032073065462742661 0.00013654997156123082 0 -0.032053867176474217 0.00014065079714662915 0 -0.032039141328033566 0.00015067487193704462 0 -0.027715588982037642 0.00032061275142222171 0 -0.026470013716840646 0.00071874658597971541 0 -0.024067380005862751 0.00081396093860784929 0 -0.024574350405900468 0.00053485688839746551 0 -0.024260990748576766 3.5337794081500469e-05 0 -0.024574350405900468 0.00053485688839746551 0 -0.024949866881212809 0.0010064271901734159 0 -0.024863996574670748 8.1681305434360197e-06 0 -0.024949866881212809 0.0010064271901734159 0 -0.025537761507953588 -0.00012537317624511125 0 -0.024863996574670748 8.1681305434360197e-06 0 -0.024574350405900468 0.00053485688839746551 0 -0.024863996574670748 8.1681305434360197e-06 0 -0.024260990748576766 3.5337794081500469e-05 0 -0.024067380005862751 0.00081396093860784929 0 -0.024574350405900468 0.00053485688839746551 0 -0.024949866881212809 0.0010064271901734159 0 -0.02666728050531772 5.0017453603722038e-07 0 -0.027353391386972598 0.00035278278198755977 0 -0.026663335320554305 1.7495069735566073e-06 0 -0.024949866881212809 0.0010064271901734159 0 -0.025537761507953588 -0.00012537317624511125 0 -0.026669731358579196 2.8151620632993456e-06 0 -0.029692062988840331 0.00072462531816778943 0 -0.028698733481566853 -5.1757747909931627e-07 0 -0.029692062988840331 0.00072462531816778943 0 -0.031049225413527622 0.00020390898911720596 0 -0.028698733481566853 -5.1757747909931627e-07 0 -0.031049225413527622 0.00020390898911720596 0 -0.028698733481566853 -5.1757747909931627e-07 0 -0.031199165712468051 -6.6777564213294887e-05 0 -0.031404204168845984 -2.4389894878802879e-07 0 -0.028698733481566853 -5.1757747909931627e-07 0 -0.031199165712468051 -6.6777564213294887e-05 0 -0.031049225413527622 0.00020390898911720596 0 -0.031199165712468051 -6.6777564213294887e-05 0 -0.031909880842592317 2.3714220911185392e-05 0 -0.032827574419880164 9.7100016642822471e-05 0 -0.031199165712468051 -6.6777564213294887e-05 0 -0.031909880842592317 2.3714220911185392e-05 0 -0.032827574419880164 9.7100016642822471e-05 0 -0.031909880842592317 2.3714220911185392e-05 0 -0.032184541858291491 8.5144501810908426e-06 0 -0.031909880842592317 2.3714220911185392e-05 0 -0.032184541858291491 8.5144501810908426e-06 0 -0.031904906598505769 0.00013103180443413539 0 -0.032184541858291491 8.5144501810908426e-06 0 -0.032103906711416601 0.00015864712137665036 0 -0.031904906598505769 0.00013103180443413539 0 -0.032109987555087836 9.5166282938205583e-05 0 -0.032184541858291491 8.5144501810908426e-06 0 -0.032103906711416601 0.00015864712137665036 0 -0.031694968949846317 0.00056629749398524713 0 -0.032103906711416601 0.00015864712137665036 0 -0.03171301299602055 0.00046804625680979821 0 -0.032103906711416601 0.00015864712137665036 0 -0.03171301299602055 0.00046804625680979821 0 -0.031904906598505769 0.00013103180443413539 0 -0.028803185281689448 -0.00031766183596306354 0 -0.030481866282619022 -0.0006761352851528072 0 -0.031049225413527622 0.00020390898911720596 0 -0.03171301299602055 0.00046804625680979821 0 -0.031904906598505769 0.00013103180443413539 0 -0.031653979751994896 0.0006000398563585492 0 -0.031049225413527622 0.00020390898911720596 0 -0.03171301299602055 0.00046804625680979821 0 -0.031049225413527622 0.00020390898911720596 0 -0.031909880842592317 2.3714220911185392e-05 0 -0.031904906598505769 0.00013103180443413539 0 -0.03339057294898698 -3.495839416974847e-05 0 -0.030881871341844672 0.00086343140656764176 0 -0.034750434353069161 -0.00035898488243692211 0 -0.034800886295802892 -0.0015858516681553152 0 -0.034148215505837388 -0.00059345587531984623 0 -0.034922647606949374 0.00010139975558504711 0 -0.034939863377116888 7.7591233458178431e-05 0 -0.034940820086355268 0.00012987981015534126 0 -0.034922647606949374 0.00010139975558504711 0 -0.034913705694803863 0.00014526157511568822 0 -0.034940820086355268 0.00012987981015534126 0 -0.034922647606949374 0.00010139975558504711 0 -0.034893891109050112 0.00014446654162279828 0 -0.034913705694803863 0.00014526157511568822 0 -0.034922647606949374 0.00010139975558504711 0 -0.034928023030053823 5.7924492310144504e-05 0 -0.034936809121055019 5.3229960003343626e-05 0 -0.034922647606949374 0.00010139975558504711 0 -0.034928023030053823 5.7924492310144504e-05 0 -0.034939863377116888 7.7591233458178431e-05 0 -0.03339057294898698 -3.495839416974847e-05 0 -0.033992032730400835 7.2138156140424015e-05 0 -0.034928023030053823 5.7924492310144504e-05 0 -0.034939863377116888 7.7591233458178431e-05 0 -0.03487839185846995 6.2329840357074556e-05 0 -0.034750434353069161 -0.00035898488243692211 0 -0.03487839185846995 6.2329840357074556e-05 0 -0.034225377893418299 5.9552304106272026e-05 0 -0.03487839185846995 6.2329840357074556e-05 0 -0.034999886351971231 1.2314375717753437e-07 0 -0.034952474473210156 3.8339703501412994e-05 0 -0.03487839185846995 6.2329840357074556e-05 0 -0.034999886351971231 1.2314375717753437e-07 0 -0.034701925497005216 7.6063892524048029e-05 0 -0.034999886351971231 1.2314375717753437e-07 0 -0.034952474473210156 3.8339703501412994e-05 0 -0.034999921810212692 -4.0320417267504596e-09 0 -0.034928023030053823 5.7924492310144504e-05 0 -0.03487839185846995 6.2329840357074556e-05 0 -0.034952474473210156 3.8339703501412994e-05 0 -0.034928023030053823 5.7924492310144504e-05 0 -0.034952474473210156 3.8339703501412994e-05 0 -0.034936809121055019 5.3229960003343626e-05 0 -0.034936809121055019 5.3229960003343626e-05 0 -0.034960467310954417 1.0465123650728253e-05 0 -0.034925082803839338 3.8847709174740792e-05 0 -0.034952474473210156 3.8339703501412994e-05 0 -0.034936809121055019 5.3229960003343626e-05 0 -0.034960467310954417 1.0465123650728253e-05 0 -0.034999921810212692 -4.0320417267504596e-09 0 -0.034960467310954417 1.0465123650728253e-05 0 -0.03499992318753728 9.9413538363724002e-09 0 -0.034952474473210156 3.8339703501412994e-05 0 -0.034999921810212692 -4.0320417267504596e-09 0 -0.034960467310954417 1.0465123650728253e-05 0 -0.034960467310954417 1.0465123650728253e-05 0 -0.03499992318753728 9.9413538363724002e-09 0 -0.034943812787714773 -1.1031570891623734e-05 0 -0.034943812787714773 -1.1031570891623734e-05 0 -0.034925082803839338 3.8847709174740792e-05 0 -0.034838764615861439 3.0593746805558667e-05 0 -0.034960467310954417 1.0465123650728253e-05 0 -0.034943812787714773 -1.1031570891623734e-05 0 -0.034925082803839338 3.8847709174740792e-05 0 -0.034925082803839338 3.8847709174740792e-05 0 -0.034863346597117227 9.0586065059573454e-05 0 -0.034838764615861439 3.0593746805558667e-05 0 -0.034863346597117227 9.0586065059573454e-0