<?xml version="1.0"?>
<VTKFile type="UnstructuredGrid" version="0.1" byte_order="LittleEndian">
<UnstructuredGrid>
<Piece NumberOfPoints="31898" NumberOfCells="11152">
<Points>
<DataArray type="Float64" NumberOfComponents="3" format="ascii">
-0.5 -0.5 0 -0.47620991077874902 -0.44978878706170539 0 -0.49999999999999473 -0.42132396840504388 0 -0.5 -0.5 0 -0.47160970827802529 -0.4793630013852106 0 -0.47620991077874902 -0.44978878706170539 0 -0.5 -0.5 0 -0.47160970827802529 -0.4793630013852106 0 -0.44860394795025399 -0.5 0 -0.47160970827802529 -0.4793630013852106 0 -0.44860394795025399 -0.5 0 -0.4490820238307246 -0.45820516232899983 0 -0.44860394795025399 -0.5 0 -0.4490820238307246 -0.45820516232899983 0 -0.42881687682924802 -0.47781464288736519 0 -0.4490820238307246 -0.45820516232899983 0 -0.45555437223955858 -0.42914059360647611 0 -0.4490820238307246 -0.45820516232899983 0 -0.45555437223955858 -0.42914059360647611 0 -0.43867285131603428 -0.4271457417558665 0 -0.4490820238307246 -0.45820516232899983 0 -0.43867285131603428 -0.4271457417558665 0 -0.4263356171060747 -0.44269880333887462 0 -0.47160970827802529 -0.4793630013852106 0 -0.4490820238307246 -0.45820516232899983 0 -0.47620991077874902 -0.44978878706170539 0 -0.4490820238307246 -0.45820516232899983 0 -0.47620991077874902 -0.44978878706170539 0 -0.45555437223955858 -0.42914059360647611 0 -0.47620991077874902 -0.44978878706170539 0 -0.48101336032419229 -0.41069999664450008 0 -0.45555437223955858 -0.42914059360647611 0 -0.47620991077874902 -0.44978878706170539 0 -0.49999999999999473 -0.42132396840504388 0 -0.48101336032419229 -0.41069999664450008 0 -0.49999999999999473 -0.42132396840504388 0 -0.48101336032419229 -0.41069999664450008 0 -0.5 -0.393886241813306 0 -0.49999999999999473 -0.42132396840504388 0 -0.48101336032419229 -0.41069999664450008 0 -0.5 -0.393886241813306 0 -0.47854472220918332 -0.38978458738689759 0 -0.48422759779560409 -0.37130120630367158 0 -0.5 -0.393886241813306 0 -0.5 -0.36644851522156802 0 -0.48422759779560409 -0.37130120630367158 0 -0.48101336032419229 -0.41069999664450008 0 -0.5 -0.393886241813306 0 -0.47854472220918332 -0.38978458738689759 0 -0.48101336032419229 -0.41069999664450008 0 -0.47854472220918332 -0.38978458738689759 0 -0.46202672064839212 -0.40007602488395211 0 -0.48101336032419229 -0.41069999664450008 0 -0.46202672064839212 -0.40007602488395211 0 -0.47854472220918332 -0.38978458738689759 0 -0.46725442735267431 -0.37660061361585562 0 -0.46202672064839212 -0.40007602488395211 0 -0.47854472220918332 -0.38978458738689759 0 -0.46725442735267431 -0.37660061361585562 0 -0.48422759779560409 -0.37130120630367158 0 -0.46725442735267431 -0.37660061361585562 0 -0.46202672064839212 -0.40007602488395211 0 -0.46725442735267431 -0.37660061361585562 0 -0.45645674801697989 -0.38644133236760531 0 -0.46202672064839212 -0.40007602488395211 0 -0.46725442735267431 -0.37660061361585562 0 -0.45645674801697989 -0.38644133236760531 0 -0.4540003998136638 -0.37455519391687309 0 -0.45645674801697989 -0.38644133236760531 0 -0.46202672064839212 -0.40007602488395211 0 -0.44257020456291563 -0.38918913383950271 0 -0.46202672064839212 -0.40007602488395211 0 -0.44257020456291563 -0.38918913383950271 0 -0.44727608925983742 -0.41095911152778891 0 -0.46202672064839212 -0.40007602488395211 0 -0.44257020456291563 -0.38918913383950271 0 -0.44257020456291563 -0.38918913383950271 0 -0.44727608925983742 -0.41095911152778891 0 -0.43479358559901082 -0.4041454901736512 0 -0.44257020456291563 -0.38918913383950271 0 -0.4540003998136638 -0.37455519391687309 0 -0.44172858264042247 -0.37082207246888088 0 -0.45645674801697989 -0.38644133236760531 0 -0.44257020456291563 -0.38918913383950271 0 -0.4540003998136638 -0.37455519391687309 0 -0.46202672064839212 -0.40007602488395211 0 -0.45555437223955858 -0.42914059360647611 0 -0.44727608925983742 -0.41095911152778891 0 -0.46202672064839212 -0.40007602488395211 0 -0.45555437223955858 -0.42914059360647611 0 -0.48101336032419229 -0.41069999664450008 0 -0.46202672064839212 -0.40007602488395211 0 -0.45555437223955858 -0.42914059360647611 0 -0.44727608925983742 -0.41095911152778891 0 -0.43867285131603428 -0.4271457417558665 0 -0.43676601469929588 -0.41441201227470881 0 -0.44727608925983742 -0.41095911152778891 0 -0.43676601469929588 -0.41441201227470881 0 -0.43479358559901082 -0.4041454901736512 0 -0.45555437223955858 -0.42914059360647611 0 -0.44727608925983742 -0.41095911152778891 0 -0.43867285131603428 -0.4271457417558665 0 -0.43867285131603428 -0.4271457417558665 0 -0.42681803064840879 -0.42717069814352421 0 -0.4263356171060747 -0.44269880333887462 0 -0.42681803064840879 -0.42717069814352421 0 -0.41531815884496182 -0.42985383783075998 0 -0.4263356171060747 -0.44269880333887462 0 -0.42681803064840879 -0.42717069814352421 0 -0.42624289495594048 -0.42089725947505818 0 -0.42083332353326591 -0.42146747131641099 0 -0.42681803064840879 -0.42717069814352421 0 -0.43096994786351572 -0.41951492446283251 0 -0.42624289495594048 -0.42089725947505818 0 -0.43867285131603428 -0.4271457417558665 0 -0.42681803064840879 -0.42717069814352421 0 -0.43096994786351572 -0.41951492446283251 0 -0.43867285131603428 -0.4271457417558665 0 -0.43676601469929588 -0.41441201227470881 0 -0.43096994786351572 -0.41951492446283251 0 -0.43676601469929588 -0.41441201227470881 0 -0.43096994786351572 -0.41951492446283251 0 -0.42907264086257813 -0.41311715872526122 0 -0.43676601469929588 -0.41441201227470881 0 -0.42907264086257813 -0.41311715872526122 0 -0.43479358559901082 -0.4041454901736512 0 -0.42907264086257813 -0.41311715872526122 0 -0.43479358559901082 -0.4041454901736512 0 -0.42460885511582858 -0.40417321677700252 0 -0.42907264086257813 -0.41311715872526122 0 -0.41997834854398469 -0.41180534796019508 0 -0.42907264086257813 -0.41311715872526122 0 -0.42635027777857132 -0.41543594397746519 0 -0.41997834854398469 -0.41180534796019508 0 -0.42907264086257813 -0.41311715872526122 0 -0.41997834854398469 -0.41180534796019508 0 -0.42460885511582858 -0.40417321677700252 0 -0.42635027777857132 -0.41543594397746519 0 -0.41997834854398469 -0.41180534796019508 0 -0.42635027777857132 -0.41543594397746519 0 -0.42083332353326591 -0.42146747131641099 0 -0.41997834854398469 -0.41180534796019508 0 -0.43096994786351572 -0.41951492446283251 0 -0.42624289495594048 -0.42089725947505818 0 -0.42635027777857132 -0.41543594397746519 0 -0.43096994786351572 -0.41951492446283251 0 -0.42907264086257813 -0.41311715872526122 0 -0.42635027777857132 -0.41543594397746519 0 -0.42624289495594048 -0.42089725947505818 0 -0.42635027777857132 -0.41543594397746519 0 -0.42083332353326591 -0.42146747131641099 0 -0.42083332353326591 -0.42146747131641099 0 -0.41997834854398469 -0.41180534796019508 0 -0.40992282953163789 -0.42011435591993562 0 -0.41997834854398469 -0.41180534796019508 0 -0.39756877647335259 -0.40857286797681719 0 -0.41997834854398469 -0.41180534796019508 0 -0.40992282953163789 -0.42011435591993562 0 -0.39756877647335259 -0.40857286797681719 0 -0.40992282953163789 -0.42011435591993562 0 -0.41531815884496182 -0.42985383783075998 0 -0.39591554026262499 -0.42887225451549271 0 -0.41531815884496182 -0.42985383783075998 0 -0.39591554026262499 -0.42887225451549271 0 -0.41160927495564159 -0.44339431233754628 0 -0.42083332353326591 -0.42146747131641099 0 -0.40992282953163789 -0.42011435591993562 0 -0.41531815884496182 -0.42985383783075998 0 -0.42681803064840879 -0.42717069814352421 0 -0.42083332353326591 -0.42146747131641099 0 -0.41531815884496182 -0.42985383783075998 0 -0.44257020456291563 -0.38918913383950271 0 -0.42311368847744002 -0.37830224279505142 0 -0.42594061475171041 -0.39368797999533162 0 -0.44257020456291563 -0.38918913383950271 0 -0.42311368847744002 -0.37830224279505142 0 -0.44172858264042247 -0.37082207246888088 0 -0.44257020456291563 -0.38918913383950271 0 -0.42311368847744002 -0.37830224279505142 0 -0.42311368847744002 -0.37830224279505142 0 -0.42594061475171041 -0.39368797999533162 0 -0.416587075656149 -0.38785930376960043 0 -0.44257020456291563 -0.38918913383950271 0 -0.42594061475171041 -0.39368797999533162 0 -0.43479358559901082 -0.4041454901736512 0 -0.42594061475171041 -0.39368797999533162 0 -0.43479358559901082 -0.4041454901736512 0 -0.42460885511582858 -0.40417321677700252 0 -0.41997834854398469 -0.41180534796019508 0 -0.41325908582185972 -0.39811010703057192 0 -0.39770572831670092 -0.39911486077581648 0 -0.41997834854398469 -0.41180534796019508 0 -0.39770572831670092 -0.39911486077581648 0 -0.42594061475171041 -0.39368797999533162 0 -0.42460885511582858 -0.40417321677700252 0 -0.41325908582185972 -0.39811010703057192 0 -0.41997834854398469 -0.41180534796019508 0 -0.42460885511582858 -0.40417321677700252 0 -0.41325908582185972 -0.39811010703057192 0 -0.42594061475171041 -0.39368797999533162 0 -0.41325908582185972 -0.39811010703057192 0 -0.416587075656149 -0.38785930376960043 0 -0.41325908582185972 -0.39811010703057192 0 -0.416587075656149 -0.38785930376960043 0 -0.40403491357358612 -0.38133688525744702 0 -0.42311368847744002 -0.37830224279505142 0 -0.40403491357358612 -0.38133688525744702 0 -0.40365717239196519 -0.36741535175059892 0 -0.42311368847744002 -0.37830224279505142 0 -0.416587075656149 -0.38785930376960043 0 -0.40403491357358612 -0.38133688525744702 0 -0.40403491357358612 -0.38133688525744702 0 -0.39190790742475001 -0.38540387676521748 0 -0.39770572831670092 -0.39911486077581648 0 -0.40403491357358612 -0.38133688525744702 0 -0.39190790742475001 -0.38540387676521748 0 -0.3904578797192948 -0.37473938743617019 0 -0.41325908582185972 -0.39811010703057192 0 -0.40403491357358612 -0.38133688525744702 0 -0.39770572831670092 -0.39911486077581648 0 -0.39770572831670092 -0.39911486077581648 0 -0.37543310808941849 -0.38642437359143528 0 -0.39770572831670092 -0.39911486077581648 0 -0.37515920440272033 -0.40534038799344108 0 -0.37543310808941849 -0.38642437359143528 0 -0.39770572831670092 -0.39911486077581648 0 -0.37515920440272033 -0.40534038799344108 0 -0.39756877647335259 -0.40857286797681719
[...]
<PointData Scalars="" Vectors="displacement," Tensors="">
<DataArray type="Float64" Name="displacement" NumberOfComponents="3" format="ascii">
-1.6937646927930336e-06 -0.034996800894316123 0 -0.00017069553608392162 -0.032719459431202871 0 3.5779859208632143e-06 -0.029500828660620943 0 -1.6937646927930336e-06 -0.034996800894316123 0 -0.00015691506592504988 -0.034199329698502777 0 -0.00017069553608392162 -0.032719459431202871 0 -1.6937646927930336e-06 -0.034996800894316123 0 -0.00015691506592504988 -0.034199329698502777 0 6.482761682362411e-09 -0.034999137310690265 0 -0.00015691506592504988 -0.034199329698502777 0 6.482761682362411e-09 -0.034999137310690265 0 -8.7727121216650509e-05 -0.034195320824108769 0 6.482761682362411e-09 -0.034999137310690265 0 -8.7727121216650509e-05 -0.034195320824108769 0 -6.8747319933444901e-05 -0.034758908785254235 0 -0.00013744312218367762 -0.033548682592897706 0 0.00016260115249817745 -0.032662165372646351 0 -8.7727121216650509e-05 -0.034195320824108769 0 0.00037827817414624811 -0.034165575107116278 0 0.0004074027002581451 -0.03434231903591297 0 -8.7727121216650509e-05 -0.034195320824108769 0 0.0004074027002581451 -0.03434231903591297 0 0.00019785642547679634 -0.034564476253211837 0 -0.00015691506592504988 -0.034199329698502777 0 -8.7727121216650509e-05 -0.034195320824108769 0 -0.00017069553608392162 -0.032719459431202871 0 -8.7727121216650509e-05 -0.034195320824108769 0 -0.00017069553608392162 -0.032719459431202871 0 0.00061937339504212498 -0.033370481421312534 0 -0.00017069553608392162 -0.032719459431202871 0 0.0013180469623568088 -0.031619035634958124 0 0.00061937339504212498 -0.033370481421312534 0 -0.00017069553608392162 -0.032719459431202871 0 3.5779859208632143e-06 -0.029500828660620943 0 0.0013180469623568088 -0.031619035634958124 0 1.9789575341163818e-06 -0.029489655954187042 0 0.00030191934857943219 -0.027196418435809038 0 -8.329022569379517e-07 -0.027572047727604316 0 7.2839905745284124e-07 -0.029492110322451758 0 0.00061135534106454472 -0.029265212119580938 0 -8.329022569379517e-07 -0.027572047727604316 0 -7.8281782329848423e-05 -0.026489678445637231 0 -0.00016672466374895024 -0.025781228307763433 0 -8.329022569379517e-07 -0.027572047727604316 0 -2.532314181653429e-07 -0.02565117322260085 0 -0.00016672466374895024 -0.025781228307763433 0 0.00030191934857943219 -0.027196418435809038 0 -8.329022569379517e-07 -0.027572047727604316 0 -7.8281782329848423e-05 -0.026489678445637231 0 0.00030191934857943219 -0.027196418435809038 0 -7.8281782329848423e-05 -0.026489678445637231 0 0.00013355377407901794 -0.026233742486569046 0 0.00061135534106454472 -0.029265212119580938 0 0.00070929627284285995 -0.028149958898140492 0 -7.8281782329848423e-05 -0.026489678445637231 0 -0.00020485312882245369 -0.026002480639208618 0 0.00013355377407901794 -0.026233742486569046 0 -7.8281782329848423e-05 -0.026489678445637231 0 -0.00020485312882245369 -0.026002480639208618 0 -0.00016672466374895024 -0.025781228307763433 0 0.00026396529717181364 -0.024538597363956308 0 0.00070929627284285995 -0.028149958898140492 0 0.00032897942333028394 -0.020486926928287651 0 -0.00010724299553156085 -0.020939524975780725 0 -0.0006794801930990309 -0.020720455530237533 0 0.00032897942333028394 -0.020486926928287651 0 -0.00010724299553156085 -0.020939524975780725 0 0.00036922872027120442 -0.021017471464437942 0 -0.00010724299553156085 -0.020939524975780725 0 -0.0006794801930990309 -0.020720455530237533 0 -0.00023703627008885272 -0.021523041976469114 0 0.00049472420336737512 -0.034255120065047238 0 0.00039059770081608373 -0.034304336847761956 0 0.00048994135358428384 -0.03427635592309089 0 0.00070929627284285995 -0.028149958898140492 0 0.0001961596107373829 -0.027852893920505505 0 0.00039059770081608373 -0.034304336847761956 0 0.00048994135358428384 -0.03427635592309089 0 0.00048583110957408423 -0.034282263291938779 0 -0.00023703627008885272 -0.021523041976469114 0 0.00036922872027120442 -0.021017471464437942 0 0.00051584733550421875 -0.021544736143532923 0 -0.00010724299553156085 -0.020939524975780725 0 -0.00023703627008885272 -0.021523041976469114 0 0.00036922872027120442 -0.021017471464437942 0 0.00049472420336737512 -0.034255120065047238 0 0.00037827817414624811 -0.034165575107116278 0 0.00048994135358428384 -0.03427635592309089 0 0.00070929627284285995 -0.028149958898140492 0 0.00016260115249817745 -0.032662165372646351 0 0.0013180469623568088 -0.031619035634958124 0 0.0020322130132978495 -0.03278406752530081 0 0.00061937339504212498 -0.033370481421312534 0 0.00048994135358428384 -0.03427635592309089 0 0.0004074027002581451 -0.03434231903591297 0 0.00050483517025403952 -0.034317579851565139 0 0.00048994135358428384 -0.03427635592309089 0 0.00050483517025403952 -0.034317579851565139 0 0.00048583110957408423 -0.034282263291938779 0 0.00037827817414624811 -0.034165575107116278 0 0.00048994135358428384 -0.03427635592309089 0 0.0004074027002581451 -0.03434231903591297 0 0.0004074027002581451 -0.03434231903591297 0 0.00038723641683312097 -0.034485741407642219 0 0.00019785642547679634 -0.034564476253211837 0 0.00038723641683312097 -0.034485741407642219 0 0.0003485216353855607 -0.034656550325258252 0 0.00019785642547679634 -0.034564476253211837 0 0.00038723641683312097 -0.034485741407642219 0 0.00045994907857827829 -0.034459916244661701 0 0.00045021372450012247 -0.034553964534386611 0 0.00038723641683312097 -0.034485741407642219 0 0.00047690555260207962 -0.0343794440008173 0 0.00045994907857827829 -0.034459916244661701 0 0.0004074027002581451 -0.03434231903591297 0 0.00038723641683312097 -0.034485741407642219 0 0.00047690555260207962 -0.0343794440008173 0 0.0004074027002581451 -0.03434231903591297 0 0.00050483517025403952 -0.034317579851565139 0 0.00047690555260207962 -0.0343794440008173 0 0.00050483517025403952 -0.034317579851565139 0 0.00047690555260207962 -0.0343794440008173 0 0.00056928525648704698 -0.034323161977221392 0 0.00050483517025403952 -0.034317579851565139 0 0.00056928525648704698 -0.034323161977221392 0 0.00048583110957408423 -0.034282263291938779 0 0.00056928525648704698 -0.034323161977221392 0 0.00048583110957408423 -0.034282263291938779 0 0.00049619566684285389 -0.034174892575042894 0 0.00089704188634599704 -0.034137736681906831 0 0.00092061864884543159 -0.034077824163493177 0 0.00056928525648704698 -0.034323161977221392 0 0.00052761782619423561 -0.034423518158372239 0 0.00065036161384799871 -0.034620911933282789 0 0.00056928525648704698 -0.034323161977221392 0 0.00062970161924722585 -0.034100093705693488 0 0.00049619566684285389 -0.034174892575042894 0 0.0009112306736170576 -0.034120925371377175 0 0.00092061864884543159 -0.034077824163493177 0 0.00052761782619423561 -0.034423518158372239 0 0.00045021372450012247 -0.034553964534386611 0 0.00059270523524239686 -0.034563317977765275 0 0.00047690555260207962 -0.0343794440008173 0 0.00045994907857827829 -0.034459916244661701 0 0.00052761782619423561 -0.034423518158372239 0 0.00047690555260207962 -0.0343794440008173 0 0.00056928525648704698 -0.034323161977221392 0 0.00052761782619423561 -0.034423518158372239 0 0.00045994907857827829 -0.034459916244661701 0 0.00052761782619423561 -0.034423518158372239 0 0.00045021372450012247 -0.034553964534386611 0 0.00045021372450012247 -0.034553964534386611 0 0.00059270523524239686 -0.034563317977765275 0 0.00047060498815448061 -0.034712055985217684 0 0.00092061864884543159 -0.034077824163493177 0 0.00086315941044203415 -0.034018234617468925 0 0.00059270523524239686 -0.034563317977765275 0 0.00047060498815448061 -0.034712055985217684 0 0.00061290759354262921 -0.034868266358628157 0 0.00047060498815448061 -0.034712055985217684 0 0.0003485216353855607 -0.034656550325258252 0 0.00036308450306622416 -0.034890852951513798 0 0.0003485216353855607 -0.034656550325258252 0 0.00036308450306622416 -0.034890852951513798 0 0.00019253184147521022 -0.034733485203830586 0 0.00045021372450012247 -0.034553964534386611 0 0.00047060498815448061 -0.034712055985217684 0 0.0003485216353855607 -0.034656550325258252 0 0.00038723641683312097 -0.034485741407642219 0 0.00045021372450012247 -0.034553964534386611 0 0.0003485216353855607 -0.034656550325258252 0 0.00039059770081608373 -0.034304336847761956 0 0.00011384501983596275 -0.034098575008937565 0 0.00037092283324822978 -0.034158245463596443 0 -0.00023703627008885272 -0.021523041976469114 0 0.00019527728299952621 -0.022358792495688461 0 0.00051584733550421875 -0.021544736143532923 0 0.0001961596107373829 -0.027852893920505505 0 0.00023298798971970277 -0.02815571893548283 0 0.00011384501983596275 -0.034098575008937565 0 0.00037092283324822978 -0.034158245463596443 0 0.00026341435461428646 -0.033987033943317028 0 0.00039059770081608373 -0.034304336847761956 0 0.00037092283324822978 -0.034158245463596443 0 0.00048583110957408423 -0.034282263291938779 0 0.00037092283324822978 -0.034158245463596443 0 0.00048583110957408423 -0.034282263291938779 0 0.00049619566684285389 -0.034174892575042894 0 0.00062970161924722585 -0.034100093705693488 0 0.00043305767170314605 -0.033943157358416347 0 0.00048575377686692052 -0.033614671463031279 0 0.00092061864884543159 -0.034077824163493177 0 0.00095766128566843504 -0.033254632333861944 0 0.00037092283324822978 -0.034158245463596443 0 0.00049619566684285389 -0.034174892575042894 0 0.00043305767170314605 -0.033943157358416347 0 0.00062970161924722585 -0.034100093705693488 0 0.00049619566684285389 -0.034174892575042894 0 0.00043305767170314605 -0.033943157358416347 0 0.00037092283324822978 -0.034158245463596443 0 0.00043305767170314605 -0.033943157358416347 0 0.00026341435461428646 -0.033987033943317028 0 0.00043305767170314605 -0.033943157358416347 0 0.00026341435461428646 -0.033987033943317028 0 0.00013003139026133848 -0.033737337441089338 0 0.00011384501983596275 -0.034098575008937565 0 0.00013003139026133848 -0.033737337441089338 0 -0.0001308403130394023 -0.033716629272554824 0 0.00011384501983596275 -0.034098575008937565 0 0.00026341435461428646 -0.033987033943317028 0 0.00013003139026133848 -0.033737337441089338 0 0.00013003139026133848 -0.033737337441089338 0 0.00020642718586261414 -0.033462947258468649 0 0.00048575377686692052 -0.033614671463031279 0 0.00013003139026133848 -0.033737337441089338 0 0.00020642718586261414 -0.033462947258468649 0 -3.3538764151186883e-05 -0.033416669065316894 0 0.00043305767170314605 -0.033943157358416347 0 0.00013003139026133848 -0.033737337441089338 0 0.00048575377686692052 -0.033614671463031279 0 0.00095766128566843504 -0.033254632333861944 0 0.0010016079159856286 -0.031228660285029023 0 0.00092180629324694241 -0.033241432674838041 0 0.0011280070816414856 -0.032492941509478381 0 0.00050245514414569848 -0.032498909296019847 0 0.00092180629324694241 -0.033241432674838041 0 0.0011280070816414856 -0.032492941509478381 0 0.0012350247313236593 -0.033237793583748648 0 0.00062661840224658783 -0.033275544290518787 0 0.0010016079159856286 -0.031228660285029023 0 0.00023784630291684506 -0.033073287465530322 0 -3.3538764151186883e-05 -0.033416669065316894 0 -0.00016232100673037217 -0.033060488172336484 0 0.00020642718586261414 -0.033462947258468649 0 0.00023784630291684506 -0.033073287465530322 0 -3.3538764151186883e-05 -0.033416669065316894 0 0.0010016079159856286 -0.031228660285029023 0 0.00053762184214365902 -0.029596504181926671 0 0.00020642718586261414 -0.033462947258468649 0 0.00048575377686692052 -0.033614671463031279 0 0.00023784630291684506 -0.033073287465530322 0 0.0013408217494379042 -0.033982768732926008 0 0.00092180629324694241 -0.033241432674838041 0 0.0012350247313236593 -0.033237793583748648 0 0.00047060498815448061 -0.034712055985217684 0 0.00036308450306622416 -0.034890852951513798 0 0.00061290759354262921 -0.034868266358628157 0 0.0006457497026755133 -0.03512801852368419 0 0.00036308450306622416 -0.034890852951513798 0 0.00061290759354262921 -0.034868266358628157 0 0.00062661840224658783 -0.033275544290518787 0 0.00086315941044203415 -0.034018234617468925 0 0.0006457497026755133 -0.03512801852368419 0 0.00036308450306622416 -0.034890852951513798 0 0.00028864652445690297 -0.03513193407477587 0 0.00036308450306622416 -0.034890852951513798 0 0.00016432277746085834 -0.034927347348978247 0 0.00028864652445690297 -0.03513193407477587 0 0.00016432277746085834 -0.034927347348978247 0 -4.3865262749444721e-05 -0.035133197080191143 0 0.00028864652445690297 -0.03513193407477587 0 0.00036308450306622416 -0.034890852951513798 0 0.00016432277746085834 -0.034927347348978247 0 0.00019253184147521022 -0.034733485203830586 0 0.00016432277746085834 -0.034927347348978247 0 4.6457413547636686e-05 -0.034812050098059918 0 0.00019253184147521022 -0.034733485203830586 0 4.3963775659086703e-05 -0.034855286159412482 0 -2.2858683072916474e-05 -0.034947100741595107 0 -2.4400785355890814e-05 -0.034827893503159853 0 3.8002630332115493e-06 -0.034995473430900551 0 2.9923178837143481e-06 -0.034998081884549122 0 4.7235366679000172e-07 -0.034998131077015722 0 6.1209700846922505e-05 -0.034900013200974835 0 -8.7218404987440391e-06 -0.034971677061158661 0 6.1209700846922505e-05 -0.034900013200974835 0 6.1467872962941896e-05 -0.034898285310357782 0 6.1209700846922505e-05 -0.034900013200974835 0 4.0505650154718663e-05 -0.034957327204117893 0 0.00016432277746085834 -0.034927347348978247 0 4.6457413547636686e-05 -0.034812050098059918 0 1.1029754577932212e-06 -0.034970508320656221 0 0.00016432277746085834 -0.034927347348978247 0 1.1029754577932212e-06 -0.034970508320656221 0 -4.3865262749444721e-05 -0.035133197080191143 0 4.0505650154718663e-05 -0.034957327204117893 0 6.7523397387260153e-05 -0.034904629182808691 0 2.9923178837143481e-06 -0.034998081884549122 0 1.3894497304936618e-06 -0.034998857784273245 0 2.2751643457923658e-06 -0.034999969446726002 0 1.3894497304936618e-06 -0.034998857784273245 0 4.7235366679000172e-07 -0.034998131077015722 0 3.8365541445042054e-07 -0.034999847283595835 0 4.7235366679000172e-07 -0.034998131077015722 0 1.7255810712511401e-07 -0.034999860732501872 0 3.8365541445042054e-07 -0.034999847283595835 0 1.3894497304936618e-06 -0.034998857784273245 0 3.8365541445042054e-07 -0.034999847283595835 0 2.2751643457923658e-06 -0.034999969446726002 0 2.9923178837143481e-06 -0.034998081884549122 0 1.3894497304936618e-06 -0.034998857784273245 0 4.7235366679000172e-07 -0.034998131077015722 0 -2.7516901526404622e-08 -0.034999973836779413 0 -8.7218404987440391e-06 -0.034971677061158661 0 -1.3925111735310101e-09 -0.034999998590209712 0 4.7235366679000172e-07 -0.034998131077015722 0 1.7255810712511401e-07 -0.034999860732501872 0 5.6811475868704081e-08 -0.034999983020221975 0 -2.2858683072916474e-05 -0.034947100741595107 0 -1.4240611339058044e-07 -0.034999868844304324 0 -2.2858683072916474e-05 -0.034947100741595107 0 -2.4400785355890814e-05 -0.034827893503159853 0 -1.4240611339058044e-07 -0.034999868844304324 0 -2.4400785355890814e-05 -0.034827893503159853 0 -1.4240611339058044e-07 -0.034999868844304324 0 -6.8747319933444901e-05 -0.034758908785254235 0 6.482761682362411e-09 -0.034999137310690265 0 -1.4240611339058044e-07 -0.034999868844304324 0 -6.8747319933444901e-05 -0.034758908785254235 0 -2.4400785355890814e-05 -0.034827893503159853 0 -6.8747319933444901e-05 -0.034758908785254235 0 -1.3896825195018509e-06 -0.034641060556381852 0 -8.7727121216650509e-05 -0.034195320824108769 0 -6.8747319933444901e-05 -0.034758908785254235 0 -1.3896825195018509e-06 -0.034641060556381852 0 -8.7727121216650509e-05 -0.034195320824108769 0 -1.3896825195018509e-06 -0.034641060556381852 0 0.00019785642547679634 -0.034564476253211837 0 -1.3896825195018509e-06 -0.034641060556381852 0 0.00019785642547679634 -0.034564476253211837 0 7.4590472525718792e-05 -0.034722437312979165 0 0.00019785642547679634 -0.034564476253211837 0 0.00019253184147521022 -0.034733485203830586 0 7.4590472525718792e-05 -0.034722437312979165 0 0.0003485216353855607 -0.034656550325258252 0 0.00019785642547679634 -0.034564476253211837 0 0.00019253184147521022 -0.034733485203830586 0 4.4912159989215865e-05 -0.034867973716072274 0 0.00019253184147521022 -0.034733485203830586 0 5.1291101619730101e-05 -0.034833977558054494 0 0.00019253184147521022 -0.034733485203830586 0 5.1291101619730101e-05 -0.034833977558054494 0 7.4590472525718792e-05 -0.034722437312979165 0 6.1209700846922505e-05 -0.034900013200974835 0 0.0001230707894496182 -0.034845718070680723 0 -2.4400785355890814e-05 -0.034827893503159853 0 5.1291101619730101e-05 -0.034833977558054494 0 7.4590472525718792e-05 -0.034722437312979165 0 4.3963775659086703e-05 -0.034855286159412482 0 -2.4400785355890814e-05 -0.034827893503159853 0 5.1291101619730101e-05 -0.034833977558054494 0 -2.4400785355890814e-05 -0.034827893503159853 0 -1.3896825195018509e-06 -0.034641060556381852 0 7.4590472525718792e-05 -0.034722437312979165 0 0.00079041607014621669 -0.018327707768424108 0 0.0015778606228131354 -0.017078521330828846 0 0.00052949371529469795 -0.017518310398505033 0 0.0006219986508361144 -0.016944324018686421 0 0.00035136578753783911 -0.017326070054009345 0 -0.00011021557503632501 -0.01961197935013519 0 0.00016682322771102663 -0.019564059435187832 0 9.9574790308137095e-05 -0.019699713198421797 0 -0.00011021557503632501 -0.01961197935013519 0 -5.874239084007359e-05 -0.019649372833562186 0 9.9574790308137095e-05 -0.019699713198421797 0 -0.00011021557503632501 -0.01961197935013519 0 -6.4141263394302376e-05 -0.019554019134178344 0 -5.874239084007359e-05 -0.019649372833562186 0 -0.00011021557503632501 -0.01961197935013519 0 -0.00010034771688509981 -0.019325700852772552 0 -0.0001743691197468425 -0.019671866979846422 0 -0.00011021557503632501 -0.01961197935013519 0 -0.00010034771688509981 -0.019325700852772552 0 0.00016682322771102663 -0.019564059435187832 0 0.00079041607014621669 -0.018327707768424108 0 0.00056075163346263528 -0.018391902339277774 0 -0.00010034771688509981 -0.019325700852772552 0 0.00016682322771102663 -0.019564059435187832 0 0.00015798777487963957 -0.018499901174949668 0 0.00052949371529469795 -0.017518310398505033 0 0.00015798777487963957 -0.018499901174949668 0 6.1077262210303923e-05 -0.01779231569846491 0 0.00015798777487963957 -0.018499901174949668 0 -3.8104910174613084e-07 -0.017968586402450845 0 -0.00011569845443920358 -0.019266517572501453 0 0.00015798777487963957 -0.018499901174949668 0 -3.8104910174613084e-07 -0.017968586402450845 0 -1.7090339090377007e-05 -0.017559743441508811 0 -3.8104910174613084e-07 -0.017968586402450845 0 -0.00011569845443920358 -0.019266517572501453 0 -3.5547506268726103e-07 -0.019889474447675009 0 -0.00010034771688509981 -0.019325700852772552 0 0.00015798777487963957 -0.018499901174949668 0 -0.00011569845443920358 -0.019266517572501453 0 -0.00010034771688509981 -0.019325700852772552 0 -0.00011569845443920358 -0.019266517572501453 0 -0.0001743691197468425 -0.019671866979846422 0 -0.0001743691197468425 -0.019671866979846422 0 -7.320774950176239e-05 -0.020274880683741513 0 -1.9714819068343438e-05 -0.020164586230762508 0 -0.00011569845443920358 -0.019266517572501453 0 -0.0001743691197468425 -0.019671866979846422 0 -7.320774950176239e-05 -0.020274880683741513 0 -3.5547506268726103e-07 -0.019889474447675009 0 -7.320774950176239e-05 -0.020274880683741513 0 4.5808972780773862e-07 -0.021809984212987594 0 -0.00011569845443920358 -0.019266517572501453 0 -3.5547506268726103e-07 -0.019889474447675009 0 -7.320774950176239e-05 -0.020274880683741513 0 -7.320774950176239e-05 -0.020274880683741513 0 4.5808972780773862e-07 -0.021809984212987594 0 0.00014946703567601173 -0.021054606146176942 0 0.00014946703567601173 -0.021054606146176942 0 -1.9714819068343438e-05 -0.020164586230762508 0 0.00054874210040990084 -0.020410609352528277 0 -7.320774950176239e-05 -0.020274880683741513 0 0.00014946703567601173 -0.021054606146176942 0 -1.9714819068343438e-05 -0.020164586230762508 0 -1.9714819068343438e-05 -0.020164586230762508 0 0.00025801908771988508 -0.019945729496288783 0 0.00054874210040990084 -0.020410609352528277 0 0.00025801908771988508 -0.019945729496288783