<?xml version="1.0"?>
<VTKFile type="UnstructuredGrid" version="0.1" byte_order="LittleEndian">
<UnstructuredGrid>
<Piece NumberOfPoints="31153" NumberOfCells="10907">
<Points>
<DataArray type="Float64" NumberOfComponents="3" format="ascii">
-0.5 -0.5 0 -0.47728164777231558 -0.4785996071165966 0 -0.45689259444512947 -0.50000000000000044 0 -0.5 -0.5 0 -0.49007891724228247 -0.4770838628027354 0 -0.47728164777231558 -0.4785996071165966 0 -0.5 -0.5 0 -0.49007891724228247 -0.4770838628027354 0 -0.49999999999999661 -0.47097704960403852 0 -0.49007891724228247 -0.4770838628027354 0 -0.49999999999999661 -0.47097704960403852 0 -0.4830340211968191 -0.45875879449030471 0 -0.49007891724228247 -0.4770838628027354 0 -0.47728164777231558 -0.4785996071165966 0 -0.4830340211968191 -0.45875879449030471 0 -0.45689259444512947 -0.50000000000000044 0 -0.45405298412962591 -0.47307354473530089 0 -0.47728164777231558 -0.4785996071165966 0 -0.45689259444512947 -0.50000000000000044 0 -0.45405298412962591 -0.47307354473530089 0 -0.47728164777231558 -0.4785996071165966 0 -0.45405298412962591 -0.47307354473530089 0 -0.46532854884028368 -0.45940731026721487 0 -0.45405298412962591 -0.47307354473530089 0 -0.43973595487078082 -0.48510994274581759 0 -0.43453424116129707 -0.4704641309973987 0 -0.45689259444512947 -0.50000000000000044 0 -0.45405298412962591 -0.47307354473530089 0 -0.43973595487078082 -0.48510994274581759 0 -0.45689259444512947 -0.50000000000000044 0 -0.43973595487078082 -0.48510994274581759 0 -0.42841613160213537 -0.5 0 -0.45121337381412219 -0.44614708947060128 0 -0.4422490937655868 -0.44024575072862521 0 -0.46033145833812372 -0.44240926889198129 0 -0.45121337381412219 -0.44614708947060128 0 -0.4422490937655868 -0.44024575072862521 0 -0.44242700309606597 -0.44724898024374571 0 -0.4422490937655868 -0.44024575072862521 0 -0.44242700309606597 -0.44724898024374571 0 -0.43042321930296429 -0.44532955656991507 0 -0.44242700309606597 -0.44724898024374571 0 -0.44019192448441657 -0.456155469519267 0 -0.43042321930296429 -0.44532955656991507 0 -0.45121337381412219 -0.44614708947060128 0 -0.44242700309606597 -0.44724898024374571 0 -0.44019192448441657 -0.456155469519267 0 -0.45405298412962591 -0.47307354473530089 0 -0.45121337381412219 -0.44614708947060128 0 -0.45405298412962591 -0.47307354473530089 0 -0.45121337381412219 -0.44614708947060128 0 -0.44019192448441657 -0.456155469519267 0 -0.45405298412962591 -0.47307354473530089 0 -0.44019192448441657 -0.456155469519267 0 -0.43453424116129707 -0.4704641309973987 0 -0.45405298412962591 -0.47307354473530089 0 -0.45121337381412219 -0.44614708947060128 0 -0.45895706770390232 -0.45204685670628492 0 -0.45405298412962591 -0.47307354473530089 0 -0.46532854884028368 -0.45940731026721487 0 -0.45895706770390232 -0.45204685670628492 0 -0.46532854884028368 -0.45940731026721487 0 -0.45895706770390232 -0.45204685670628492 0 -0.46033145833812372 -0.44240926889198129 0 -0.45121337381412219 -0.44614708947060128 0 -0.45895706770390232 -0.45204685670628492 0 -0.46033145833812372 -0.44240926889198129 0 -0.46729429876894762 -0.43935829750722738 0 -0.4830340211968191 -0.45875879449030471 0 -0.4845964013740845 -0.4533699071458081 0 -0.46033145833812372 -0.44240926889198129 0 -0.46729429876894762 -0.43935829750722738 0 -0.4830340211968191 -0.45875879449030471 0 -0.46729429876894762 -0.43935829750722738 0 -0.4845964013740845 -0.4533699071458081 0 -0.46033145833812372 -0.44240926889198129 0 -0.4830340211968191 -0.45875879449030471 0 -0.46729429876894762 -0.43935829750722738 0 -0.479559194399101 -0.43911436132366771 0 -0.4845964013740845 -0.4533699071458081 0 -0.47728164777231558 -0.4785996071165966 0 -0.4830340211968191 -0.45875879449030471 0 -0.47728164777231558 -0.4785996071165966 0 -0.46532854884028368 -0.45940731026721487 0 -0.4830340211968191 -0.45875879449030471 0 -0.46532854884028368 -0.45940731026721487 0 -0.46033145833812372 -0.44240926889198129 0 -0.4830340211968191 -0.45875879449030471 0 -0.4830340211968191 -0.45875879449030471 0 -0.4845964013740845 -0.4533699071458081 0 -0.49999999999999661 -0.47097704960403852 0 -0.4830340211968191 -0.45875879449030471 0 -0.49999999999999961 -0.4658440679978858 0 -0.4830340211968191 -0.45875879449030471 0 -0.4845964013740845 -0.4533699071458081 0 -0.49999999999999961 -0.4658440679978858 0 -0.49999999999999661 -0.47097704960403852 0 -0.4830340211968191 -0.45875879449030471 0 -0.4845964013740845 -0.4533699071458081 0 -0.49999999999999961 -0.4658440679978858 0 -0.5 -0.44767083444357098 0 -0.4845964013740845 -0.4533699071458081 0 -0.49999999999999961 -0.4658440679978858 0 -0.4845964013740845 -0.4533699071458081 0 -0.5 -0.44767083444357098 0 -0.49007571233826341 -0.43447092856100877 0 -0.4845964013740845 -0.4533699071458081 0 -0.49007571233826341 -0.43447092856100877 0 -0.479559194399101 -0.43911436132366771 0 -0.4845964013740845 -0.4533699071458081 0 -0.49007571233826341 -0.43447092856100877 0 -0.49007571233826341 -0.43447092856100877 0 -0.49555502330244228 -0.41557194997620939 0 -0.48308720126212001 -0.42011479327980711 0 -0.5 -0.44767083444357098 0 -0.49007571233826341 -0.43447092856100877 0 -0.49999999999999872 -0.42949760088925609 0 -0.49007571233826341 -0.43447092856100877 0 -0.49555502330244228 -0.41557194997620939 0 -0.49007571233826341 -0.43447092856100877 0 -0.49999999999999872 -0.42949760088925609 0 -0.49555502330244228 -0.41557194997620939 0 -0.49999999999999872 -0.42949760088925609 0 -0.49555502330244228 -0.41557194997620939 0 -0.49999999999999872 -0.42949760088925609 0 -0.49555502330244228 -0.41557194997620939 0 -0.49999999999999939 -0.40024054791375741 0 -0.49555502330244228 -0.41557194997620939 0 -0.49999999999999939 -0.40024054791375741 0 -0.49555502330244228 -0.41557194997620939 0 -0.48308720126212001 -0.42011479327980711 0 -0.48017075690217048 -0.40704831406391989 0 -0.48308720126212001 -0.42011479327980711 0 -0.48017075690217048 -0.40704831406391989 0 -0.47201744484553931 -0.41636257052853781 0 -0.48017075690217048 -0.40704831406391989 0 -0.47201744484553931 -0.41636257052853781 0 -0.46594870531705618 -0.40470601036541087 0 -0.47201744484553931 -0.41636257052853781 0 -0.47627036511510928 -0.4292583120806267 0 -0.46476377415712161 -0.42459747985895602 0 -0.46729429876894762 -0.43935829750722738 0 -0.47627036511510928 -0.4292583120806267 0 -0.46476377415712161 -0.42459747985895602 0 -0.46729429876894762 -0.43935829750722738 0 -0.479559194399101 -0.43911436132366771 0 -0.47627036511510928 -0.4292583120806267 0 -0.479559194399101 -0.43911436132366771 0 -0.49007571233826341 -0.43447092856100877 0 -0.47627036511510928 -0.4292583120806267 0 -0.48308720126212001 -0.42011479327980711 0 -0.47201744484553931 -0.41636257052853781 0 -0.47627036511510928 -0.4292583120806267 0 -0.49007571233826341 -0.43447092856100877 0 -0.48308720126212001 -0.42011479327980711 0 -0.47627036511510928 -0.4292583120806267 0 -0.5 -0.37615469370796661 0 -0.48773470393351459 -0.39107170060030172 0 -0.47991438456458763 -0.36657145122439377 0 -0.5 -0.37615469370796661 0 -0.48773470393351459 -0.39107170060030172 0 -0.49999999999999939 -0.40024054791375741 0 -0.49555502330244228 -0.41557194997620939 0 -0.48773470393351459 -0.39107170060030172 0 -0.49999999999999939 -0.40024054791375741 0 -0.49555502330244228 -0.41557194997620939 0 -0.48017075690217048 -0.40704831406391989 0 -0.48773470393351459 -0.39107170060030172 0 -0.49555502330244228 -0.41557194997620939 0 -0.48773470393351459 -0.39107170060030172 0 -0.48017075690217048 -0.40704831406391989 0 -0.48773470393351459 -0.39107170060030172 0 -0.47401840227218323 -0.39565188186331768 0 -0.48017075690217048 -0.40704831406391989 0 -0.47401840227218323 -0.39565188186331768 0 -0.46594870531705618 -0.40470601036541087 0 -0.48773470393351459 -0.39107170060030172 0 -0.47991438456458763 -0.36657145122439377 0 -0.48773470393351459 -0.39107170060030172 0 -0.47373804209450332 -0.38204112143425978 0 -0.47991438456458763 -0.36657145122439377 0 -0.48773470393351459 -0.39107170060030172 0 -0.47401840227218323 -0.39565188186331768 0 -0.47373804209450332 -0.38204112143425978 0 -0.47401840227218323 -0.39565188186331768 0 -0.47373804209450332 -0.38204112143425978 0 -0.46148244580707071 -0.39332200182318527 0 -0.47373804209450332 -0.38204112143425978 0 -0.46148244580707071 -0.39332200182318527 0 -0.4476392293563643 -0.37371378910624697 0 -0.47401840227218323 -0.39565188186331768 0 -0.46148244580707071 -0.39332200182318527 0 -0.46594870531705618 -0.40470601036541087 0 -0.46148244580707071 -0.39332200182318527 0 -0.46594870531705618 -0.40470601036541087 0 -0.45305813841390569 -0.40313529865555842 0 -0.46148244580707071 -0.39332200182318527 0 -0.43895431240796029 -0.39330517679348681 0 -0.46148244580707071 -0.39332200182318527 0 -0.45305813841390569 -0.40313529865555842 0 -0.43895431240796029 -0.39330517679348681 0 -0.45305813841390569 -0.40313529865555842 0 -0.43895431240796029 -0.39330517679348681 0 -0.44289729498636332 -0.40986882980900641 0 -0.43895431240796029 -0.39330517679348681 0 -0.42963926502663552 -0.37909202820398707 0 -0.4476392293563643 -0.37371378910624697 0 -0.46148244580707071 -0.39332200182318527 0 -0.43895431240796029 -0.39330517679348681 0 -0.4476392293563643 -0.37371378910624697 0 -0.46729429876894762 -0.43935829750722738 0 -0.46476377415712161 -0.42459747985895602 0 -0.44999219616380981 -0.42534668786864788 0 -0.46033145833812372 -0.44240926889198129 0 -0.46729429876894762 -0.43935829750722738 0 -0.44999219616380981 -0.42534668786864788 0 -0.46729429876894762 -0.43935829750722738 0 -0.44999219616380981 -0.42534668786864788 0 -0.47201744484553931 -0.41636257052853781 0 -0.46476377415712161 -0.42459747985895602 0 -0.45600793355107772 -0.4144744744867026 0 -0.47201744484553931 -0.41636257052853781 0 -0.46594870531705618 -0.40470601036541087 0 -0.45600793355107772 -0.4144744744867026 0 -0.46594870531705618 -0.40470601036541087 0 -0.45305813841390569 -0.40313529865555842 0 -0.45600793355107772 -0.4144744744867026 0 -0.46476377415712161 -0.42459747985895602 
[...]
<PointData Scalars="" Vectors="displacement," Tensors="">
<DataArray type="Float64" Name="displacement" NumberOfComponents="3" format="ascii">
-0.034997519376033147 2.9983882735704238e-07 0 -0.033455594401300449 0.00062396148217807256 0 -0.031987454933381489 7.6107825748429428e-07 0 -0.034997519376033147 2.9983882735704238e-07 0 -0.034373494985630679 0.00022516780049248249 0 -0.033455594401300449 0.00062396148217807256 0 -0.034997519376033147 2.9983882735704238e-07 0 -0.034373494985630679 0.00022516780049248249 0 -0.034998193952344728 -1.1026962196682169e-07 0 -0.034373494985630679 0.00022516780049248249 0 -0.034998193952344728 -1.1026962196682169e-07 0 -0.03499967995251415 0.00049953643025244172 0 -0.034373494985630679 0.00022516780049248249 0 -0.033455594401300449 0.00062396148217807256 0 -0.03499967995251415 0.00049953643025244172 0 -0.031981922527698443 8.8223219528096874e-08 0 -0.030357254210646317 0.0001481455678449356 0 -0.033455594401300449 0.00062396148217807256 0 -0.031987454933381489 7.6107825748429428e-07 0 -0.032291896693677699 -0.00039537192396390581 0 -0.033455594401300449 0.00062396148217807256 0 -0.032291896693677699 -0.00039537192396390581 0 -0.030477059624974434 0.00061707153259327522 0 -0.028560541113212431 0.00076432668127771367 0 -0.029564797383365874 -1.6775766711749781e-05 0 -0.028304808016980904 -4.5183074973961133e-05 0 -0.031978807428930403 2.9881597279150465e-06 0 -0.028560541113212431 0.00076432668127771367 0 -0.029564797383365874 -1.6775766711749781e-05 0 -0.031978807428930403 2.9881597279150465e-06 0 -0.029564797383365874 -1.6775766711749781e-05 0 -0.029988736082133094 -1.1436186555269455e-06 0 -0.028085839530087711 -5.2275440413305851e-05 0 -0.027508551675046584 -2.6878291157563021e-05 0 -0.028066732640111711 0.00038167038510877736 0 -0.028085839530087711 -5.2275440413305851e-05 0 -0.027508551675046584 -2.6878291157563021e-05 0 -0.027757992148490337 2.5722159893318146e-06 0 -0.027508551675046584 -2.6878291157563021e-05 0 -0.027757992148490337 2.5722159893318146e-06 0 -0.027298270344356581 -0.00011361363260282463 0 -0.027757992148490337 2.5722159893318146e-06 0 -0.027876448710447515 8.8574152199098684e-05 0 -0.027298270344356581 -0.00011361363260282463 0 -0.028085839530087711 -5.2275440413305851e-05 0 -0.027757992148490337 2.5722159893318146e-06 0 -0.027876448710447515 8.8574152199098684e-05 0 -0.030357254210646317 0.0001481455678449356 0 -0.028331056610482842 -2.0998226826511961e-05 0 -0.028560541113212431 0.00076432668127771367 0 -0.028085839530087711 -5.2275440413305851e-05 0 -0.027876448710447515 8.8574152199098684e-05 0 -0.028560541113212431 0.00076432668127771367 0 -0.027876448710447515 8.8574152199098684e-05 0 -0.028304808016980904 -4.5183074973961133e-05 0 -0.032291896693677699 -0.00039537192396390581 0 -0.028085839530087711 -5.2275440413305851e-05 0 -0.029241678667143046 0.00029580488849732843 0 -0.032291896693677699 -0.00039537192396390581 0 -0.030477059624974434 0.00061707153259327522 0 -0.029241678667143046 0.00029580488849732843 0 -0.030477059624974434 0.00061707153259327522 0 -0.029241678667143046 0.00029580488849732843 0 -0.028066732640111711 0.00038167038510877736 0 -0.028085839530087711 -5.2275440413305851e-05 0 -0.029241678667143046 0.00029580488849732843 0 -0.028066732640111711 0.00038167038510877736 0 -0.028182217406630804 -7.3091382255747911e-05 0 -0.028901469961938864 0.00043716499785186296 0 -0.028712317724733566 0.0004952669495805758 0 -0.028255845175014241 -0.00026562920459890891 0 -0.028182217406630804 -7.3091382255747911e-05 0 -0.028901469961938864 0.00043716499785186296 0 -0.027582426561136904 -0.00053563461315718442 0 -0.031735410452548594 4.4236532822136707e-05 0 -0.027752394070620173 6.6994314647691205e-05 0 -0.032346389225789043 0.00066856784166999684 0 -0.027870546313167929 -0.00052470041380431505 0 -0.027893027369132458 -0.00053771459084880002 0 -0.027929227351999319 -0.00053329066279991376 0 -0.033490057389782425 0.0008759927995620248 0 -0.032346389225789043 0.00066856784166999684 0 -0.033455594401300449 0.00062396148217807256 0 -0.030477059624974434 0.00061707153259327522 0 -0.030587729260099041 0.0023841456019167051 0 -0.030477059624974434 0.00061707153259327522 0 -0.028066732640111711 0.00038167038510877736 0 -0.030587729260099041 0.0023841456019167051 0 -0.032346389225789043 0.00066856784166999684 0 -0.031735410452548594 4.4236532822136707e-05 0 -0.035000213836931048 4.4523919833726337e-08 0 -0.03492606679208906 -6.6163359360607091e-05 0 -0.034999745022467756 -4.7833838983578845e-08 0 -0.03492606679208906 -6.6163359360607091e-05 0 -0.034889707955257282 -5.7375062821259661e-05 0 -0.034999745022467756 -4.7833838983578845e-08 0 -0.035001124291981343 7.9927203382903572e-07 0 -0.032346389225789043 0.00066856784166999684 0 -0.034981393461391411 -1.314003261278488e-06 0 -0.034999973080290063 6.2542594543125162e-09 0 -0.035000012627783468 -1.5469028732667101e-08 0 -0.031735410452548594 4.4236532822136707e-05 0 -0.035001591416922107 1.3630926896456813e-06 0 -0.034981393461391411 -1.314003261278488e-06 0 -0.035000012627783468 -1.5469028732667101e-08 0 -0.034991758986308158 -9.7457206706894598e-06 0 -0.031735410452548594 4.4236532822136707e-05 0 -0.031172381106489653 -0.00024255575996062612 0 -0.027893027369132458 -0.00053771459084880002 0 -0.027929227351999319 -0.00053329066279991376 0 -0.02789819262436467 -0.00055025759825562545 0 -0.02789819262436467 -0.00055025759825562545 0 -0.02790310801576204 -0.00060856011772056416 0 -0.027887437561454467 -0.00056973578201480201 0 -0.035000012627783468 -1.5469028732667101e-08 0 -0.034991758986308158 -9.7457206706894598e-06 0 -0.034999871703438906 2.396587140155405e-08 0 -0.031172381106489653 -0.00024255575996062612 0 -0.032815732853303602 -0.00018127735430326674 0 -0.034991758986308158 -9.7457206706894598e-06 0 -0.034999871703438906 2.396587140155405e-08 0 -0.034928883335321764 -2.019110670920604e-05 0 -0.035001218397963968 4.9109679702118215e-07 0 -0.032815732853303602 -0.00018127735430326674 0 -0.03499998536176048 3.5978321762543797e-09 0 -0.034997213206362419 -2.1968877929447711e-07 0 -0.034999986660495704 -4.6477464867958622e-09 0 -0.032815732853303602 -0.00018127735430326674 0 -0.035001425850129442 -4.9113509626876937e-07 0 -0.02790310801576204 -0.00060856011772056416 0 -0.027887437561454467 -0.00056973578201480201 0 -0.027891349279318661 -0.00060002267666777408 0 -0.027887437561454467 -0.00056973578201480201 0 -0.027891349279318661 -0.00060002267666777408 0 -0.027875836848989415 -0.00052146525728532383 0 -0.027891349279318661 -0.00060002267666777408 0 -0.027875836848989415 -0.00052146525728532383 0 -0.027864306332451946 -0.00046776723590788612 0 -0.027875836848989415 -0.00052146525728532383 0 -0.027882107025271909 -0.00053908485661558956 0 -0.02788484607154167 -0.0004968030246350738 0 -0.027870546313167929 -0.00052470041380431505 0 -0.027882107025271909 -0.00053908485661558956 0 -0.02788484607154167 -0.0004968030246350738 0 -0.027870546313167929 -0.00052470041380431505 0 -0.027893027369132458 -0.00053771459084880002 0 -0.027882107025271909 -0.00053908485661558956 0 -0.027893027369132458 -0.00053771459084880002 0 -0.02789819262436467 -0.00055025759825562545 0 -0.027882107025271909 -0.00053908485661558956 0 -0.027887437561454467 -0.00056973578201480201 0 -0.027875836848989415 -0.00052146525728532383 0 -0.027882107025271909 -0.00053908485661558956 0 -0.02789819262436467 -0.00055025759825562545 0 -0.027887437561454467 -0.00056973578201480201 0 -0.027882107025271909 -0.00053908485661558956 0 -0.03500001457523183 2.0654073074472896e-09 0 -0.034989154908589656 -1.2777962672276317e-07 0 -0.034976045309642059 -6.2722144684843023e-06 0 -0.03500001457523183 2.0654073074472896e-09 0 -0.034989154908589656 -1.2777962672276317e-07 0 -0.034999861189616864 -2.5059018239841672e-08 0 -0.034952954579645798 1.1023080495690066e-05 0 -0.034989154908589656 -1.2777962672276317e-07 0 -0.034999861189616864 -2.5059018239841672e-08 0 -0.02790310801576204 -0.00060856011772056416 0 -0.027891349279318661 -0.00060002267666777408 0 -0.027986223580826326 -0.00077808452213598968 0 -0.032815732853303602 -0.00018127735430326674 0 -0.031215769787704878 -0.00044964488894873528 0 -0.027891349279318661 -0.00060002267666777408 0 -0.027986223580826326 -0.00077808452213598968 0 -0.027919698872407951 -0.000583291948315241 0 -0.027891349279318661 -0.00060002267666777408 0 -0.027919698872407951 -0.000583291948315241 0 -0.027864306332451946 -0.00046776723590788612 0 -0.031215769787704878 -0.00044964488894873528 0 -0.031921398780420759 -0.00048948381481530266 0 -0.027986223580826326 -0.00077808452213598968 0 -0.028175987387472474 -0.00065994621403515246 0 -0.028677816193639294 -0.0010135775003195673 0 -0.027986223580826326 -0.00077808452213598968 0 -0.027919698872407951 -0.000583291948315241 0 -0.028175987387472474 -0.00065994621403515246 0 -0.027919698872407951 -0.000583291948315241 0 -0.028175987387472474 -0.00065994621403515246 0 -0.027835589614250006 -0.00035312272321151827 0 -0.028175987387472474 -0.00065994621403515246 0 -0.027835589614250006 -0.00035312272321151827 0 -0.02831510602354996 0.00025634397977678691 0 -0.027919698872407951 -0.000583291948315241 0 -0.027835589614250006 -0.00035312272321151827 0 -0.027864306332451946 -0.00046776723590788612 0 -0.027835589614250006 -0.00035312272321151827 0 -0.027864306332451946 -0.00046776723590788612 0 -0.027860845840424309 -0.00043472305597281577 0 -0.027807948877244054 -0.000319060857800994 0 -0.0277183383422719 8.878485158972406e-06 0 -0.027835589614250006 -0.00035312272321151827 0 -0.027860845840424309 -0.00043472305597281577 0 -0.027820089395085471 -0.00049442868532981112 0 -0.027860845840424309 -0.00043472305597281577 0 -0.027820089395085471 -0.00049442868532981112 0 -0.027858074841576475 -0.00047986974856088581 0 -0.027612129496889449 0.00048197288109280175 0 -0.027941781050480601 0.00071705699258184266 0 -0.02831510602354996 0.00025634397977678691 0 -0.027835589614250006 -0.00035312272321151827 0 -0.027612129496889449 0.00048197288109280175 0 -0.02831510602354996 0.00025634397977678691 0 -0.027870546313167929 -0.00052470041380431505 0 -0.02788484607154167 -0.0004968030246350738 0 -0.027903131876724465 -0.00042917254000606522 0 -0.028255845175014241 -0.00026562920459890891 0 -0.028182217406630804 -7.3091382255747911e-05 0 -0.027903131876724465 -0.00042917254000606522 0 -0.027582426561136904 -0.00053563461315718442 0 -0.02805373501078973 -0.0002954925762618347 0 -0.027875836848989415 -0.00052146525728532383 0 -0.02788484607154167 -0.0004968030246350738 0 -0.027877533227580308 -0.00045411928227886018 0 -0.027875836848989415 -0.00052146525728532383 0 -0.027864306332451946 -0.00046776723590788612 0 -0.027877533227580308 -0.00045411928227886018 0 -0.027864306332451946 -0.00046776723590788612 0 -0.027860845840424309 -0.00043472305597281577 0 -0.027877533227580308 -0.00045411928227886018 0 -0.02788484607154167 -0.0004968030246350738 0 -0.027877533227580308 -0.00045411928227886018 0 -0.027903131876724465 -0.00042917254000606522 0 -0.027877533227580308 -0.00045411928227886018 0 -0.027875807025579773 -0.00046826418699421024 0 -0.027858074841576475 -0.00047986974856088581 0 -0.027877533227580308 -0.00045411928227886018 0 -0.027875807025579773 -0.00046826418699421024 0 -0.027903131876724465 -0.00042917254000606522 0 -0.027875807025579773 -0.00046826418699421024 0 -0.027858074841576475 -0.00047986974856088581 0 -0.02788821598001336 -0.0005473007852210695 0 -0.027860845840424309 -0.00043472305597281577 0 -0.027877533227580308 -0.00045411928227886018 0 -0.027858074841576475 -0.00047986974856088581 0 -0.027752394070620173 6.6994314647691205e-05 0 -0.027371499681687662 -0.00023726598560685111 0 -0.027508551675046584 -2.6878291157563021e-05 0 -0.028066732640111711 0.00038167038510877736 0 -0.026704867621555991 2.555388806461311e-05 0 -0.027875807025579773 -0.00046826418699421024 0 -0.02788821598001336 -0.0005473007852210695 0 -0.027903131876724465 -0.00042917254000606522 0 -0.028255845175014241 -0.00026562920459890891 0 -0.02788821598001336 -0.0005473007852210695 0 -0.027903131876724465 -0.00042917254000606522 0 -0.026704867621555991 2.555388806461311e-05 0 -0.027020837449119588 -9.9433759775581962e-05 0 -0.026614540157725634 -0.00025845405903072446 0 -0.026704867621555991 2.555388806461311e-05 0 -0.026614540157725634 -0.00025845405903072446 0 -0.026276382485586405 -0.00030300285801586758 0 -0.027508551675046584 -2.6878291157563021e-05 0 -0.026704867621555991 2.555388806461311e-05 0 -0.027020837449119588 -9.9433759775581962e-05 0 -0.027020837449119588 -9.9433759775581962e-05 0 -0.026614540157725634 -0.00025845405903072446 0 -0.027298270344356581 -0.00011361363260282463 0 -0.026704867621555991 2.555388806461311e-05 0 -0.02578885285437052 -0.00030546206352918592 0 -0.026276382485586405 -0.00030300285801586758 0 -0.02788821598001336 -0.0005473007852210695 0 -0.027841991909736703 -0.00051176110406191697 0 -0.027826395641354456 -0.00050857589712360678 0 -0.027858074841576475 -0.00047986974856088581 0 -0.02788821598001336 -0.0005473007852210695 0 -0.027841991909736703 -0.00051176110406191697 0 -0.027371499681687662 -0.00023726598560685111 0 -0.02676870243078406 -0.00063279097128276368 0 -0.02578885285437052 -0.00030546206352918592 0 -0.026002217434342667 -0.00047930947075680065 0 -0.025710398750508158 -0.00056678977289465241 0 -0.02578885285437052 -0.00030546206352918592 0 -0.026276382485586405 -0.00030300285801586758 0 -0.026002217434342667 -0.00047930947075680065 0 -0.026349186859607153 -0.00044934565715716693 0 -0.026276382485586405 -0.00030300285801586758 0 -0.026002217434342667 -0.00047930947075680065 0 -0.026349186859607153 -0.00044934565715716693 0 -0.026614540157725634 -0.00025845405903072446 0 -0.026920619411328981 -0.00031675812848901581 0 -0.026349186859607153 -0.00044934565715716693 0 -0.026614540157725634 -0.00025845405903072446 0 -0.026276382485586405 -0.00030300285801586758 0 -0.027612129496889449 0.00048197288109280175 0 -0.027941781050480601 0.00071705699258184266 0 -0.027545405898798701 0.00080604760739286458 0 -0.027941781050480601 0.00071705699258184266 0 -0.027545405898798701 0.00080604760739286458 0 -0.0276590238849149 0.0010903432246473761 0 -0.027612129496889449 0.00048197288109280175 0 -0.027545405898798701 0.00080604760739286458 0 -0.027439178885305112 0.0010322669426599917 0 -0.027820089395085471 -0.00049442868532981112 0 -0.027841991909736703 -0.00051176110406191697 0 -0.027834719742950844 -0.00050473903790121074 0 -0.0277183383422719 8.878485158972406e-06 0 -0.027694847327328298 0.00021768094650381994 0 -0.027820089395085471 -0.00049442868532981112 0 -0.027858074841576475 -0.00047986974856088581 0 -0.027841991909736703 -0.00051176110406191697 0 -0.027486561901272751 0.00083283639512897662 0 -0.027358511923426983 0.0013671669501165438 0 -0.027545405898798701 0.00080604760739286458 0 -0.027439178885305112 0.0010322669426599917 0 -0.027423657843663407 0.0011806150598191337 0 -0.027826395641354456 -0.00050857589712360678 0 -0.027834719742950844 -0.00050473903790121074 0 -0.027822171090106766 -0.00046079533145209213 0 -0.027841991909736703 -0.00051176110406191697 0 -0.027826395641354456 -0.00050857589712360678 0 -0.027834719742950844 -0.00050473903790121074 0 -0.027439178885305112 0.0010322669426599917 0 -0.027423657843663407 0.0011806150598191337 0 -0.027321212332491199 0.001541148953012478 0 -0.027545405898798701 0.00080604760739286458 0 -0.027308971088092642 0.0013083713998462421 0 -0.0276590238849149 0.0010903432246473761 0 -0.027308971088092642 0.0013083713998462421 0 -0.0276590238849149 0.0010903432246473761 0 -0.02748077988063247 0.0015329953530846328 0 -0.0276590238849149 0.0010903432246473761 0 -0.02748077988063247 0.0015329953530846328 0 -0.028004184662075753 0.0011076800337625294 0 -0.027941781050480601 0.00071705699258184266 0 -0.0276590238849149 0.0010903432246473761 0 -0.028004184662075753 0.0011076800337625294 0 -0.02748077988063247 0.0015329953530846328 0 -0.027429201066447768 0.0018491960263216293 0 -0.027947512802908789 0.0017539651547344259 0 -0.02748077988063247 0.0015329953530846328 0 -0.027273320737573267 0.001778253335470066 0 -0.027429201066447768 0.0018491960263216293 0 -0.027308971088092642 0.0013083713998462421 0 -0.02748077988063247 0.0015329953530846328 0 -0.027316293923710034 0.0015968208394917683 0 -0.027316293923710034 0.0015968208394917683 0 -0.027273320737573267 0.001778253335470066 0 -0.027185941100260055 0.001740844819923118 0 -0.02748077988063247 0.0015329953530846328 0 -0.027316293923710034 0.0015968208394917683 0 -0.027273320737573267 0.001778253335470066 0 -0.027826395641354456 -0.00050857589712360678 0 -0.027822171090106766 -0.00046079533145209213 0 -0.02782026934746604 -0.00045719480209261852 0 -0.027308971088092642 0.0013083713998462421 0 -0.027316293923710034 0.0015968208394917683 0 -0.027185941100260055 0.001740844819923118 0 -0.027694847327328298 0.00021768094650381994 0 -0.0268555369224821 0.00081615766742942659 0 -0.02578885285437052 -0.00030546206352918592 0 -0.025303205401277361 -0.0006328885944193556 0 -0.02549575894830192 -0.00060225745755941454 0 -0.027358511923426983 0.0013671669501165438 0 -0.0268555369224821 0.00081615766742942659 0 -0.02676870243078406 -0.00063279097128276368 0 -0.026468081757041247 0.0005211591061050014 0 -0.027273320737573267 0.001778253335470066 0 -0.027185941100260055 0.001740844819923118 0 -0.027190332560799384 0.0017677269656440366 0 -0.0268555369224821 0.00081615766742942659 0 -0.026468081757041247 0.0005211591061050014 0 -0.025303205401277361 -0.0006328885944193556 0 -0.02549575894830192 -0.00060225745755941454 0 -0.025387063709701913 -0.00064276258551305987 0 -0.02549575894830192 -0.00060225745755941454 0 -0.025411623165324904 -0.00066389306593722176 0 -0.025537142274077721 -0.00066291365732279645 0 -0.02549575894830192 -0.00060225745755941454 0 -0.025387063709701913 -0.00064276258551305987 0 -0.025411623165324904 -0.00066389306593722176 0 -0.026468081757041247 0.0005211591061050014 0 -0.025778372928686254 0.0014689378091844285 0 -0.026468081757041247 0.0005211591061050014 0 -0.024920112832608806 -0.00034833342645952523 0 -0.025303205401277361 -0.0006328885944193556 0 -0.025317161363557859 -0.00071079292563095905 0 -0.025266780820869694 -0.00076562268831873901 0 -0.025303205401277361 -0.0006328885944193556 0 -0.025266780820869694 -0.00076562268831873901 0 -0.025188459867464385 -0.00083687861368790008 0 -0.025411623165324904 -0.00066389306593722176 0 -0.025422103709748123 -0.00071091955789034759 0 -0.025537142274077721 -0.00066291365732279645 0 -0.025387063709701913 -0.00064276258551305987 0 -0.025411623165324904 -0.00066389306593722176 0 -0.025337941746468751 -0.00066819287386393061 0 -0.025411623165324904 -0.00066389306593722176 0 -0.02535843367664492 -0.00068701719058491249 0 -0.025337941746468751 -0.00066819287386393061 0 -0.02535843367664492 -0.00068701719058491249 0 -0.025317161363557859 -0.00071079292563095905 0 -0.025337941746468751 -0.00066819287386393061 0 -0.025411623165324904 -0.00066389306593722176 0 -0.02535843367664492 -0.00068701719058491249 0 -0.025369202516429726 -0.00070129368015416972 0 -0.02535843367664492 -0.00068701719058491249 0 -0.025369202516429726 -0.00070129368015416972 0 -0.025317161363557859 -0.00071079292563095905 0 -0.025369202516429726 -0.00070129368015416972 0 -0.025422103709748123 -0.00071091955789034759 0 -0.025342527109143531 -0.00073117090382455313 0 -0.025411623165324904 -0.00066389306593722176 0 -0.025369202516429726 -0.00070129368015416972 0 -0.025422103709748123 -0.00071091955789034759 0 -0.025422103709748123 -0.00071091955789034759 0 -0.025356674785539032 -0.00075163644579474809 0 -0.025342527109143531 -0.00073117090382455313 0 -0.025356674785539032 -0.00075163644579474809 0 -0.025309344089170828 -0.00075658946518431588 0 -0.025342527109143531 -0.00073117090382455313 0 -0.025356674785539032 -0.00075163644579474809 0 -0.025309344089170828 -0.00075658946518431588 0 -0.02529103033