<?xml version="1.0"?>
<VTKFile type="UnstructuredGrid" version="0.1" byte_order="LittleEndian">
<UnstructuredGrid>
<Piece NumberOfPoints="31153" NumberOfCells="10907">
<Points>
<DataArray type="Float64" NumberOfComponents="3" format="ascii">
-0.5 -0.5 0 -0.47728164777231558 -0.4785996071165966 0 -0.45689259444512947 -0.50000000000000044 0 -0.5 -0.5 0 -0.49007891724228247 -0.4770838628027354 0 -0.47728164777231558 -0.4785996071165966 0 -0.5 -0.5 0 -0.49007891724228247 -0.4770838628027354 0 -0.49999999999999661 -0.47097704960403852 0 -0.49007891724228247 -0.4770838628027354 0 -0.49999999999999661 -0.47097704960403852 0 -0.4830340211968191 -0.45875879449030471 0 -0.49007891724228247 -0.4770838628027354 0 -0.47728164777231558 -0.4785996071165966 0 -0.4830340211968191 -0.45875879449030471 0 -0.45689259444512947 -0.50000000000000044 0 -0.45405298412962591 -0.47307354473530089 0 -0.47728164777231558 -0.4785996071165966 0 -0.45689259444512947 -0.50000000000000044 0 -0.45405298412962591 -0.47307354473530089 0 -0.47728164777231558 -0.4785996071165966 0 -0.45405298412962591 -0.47307354473530089 0 -0.46532854884028368 -0.45940731026721487 0 -0.45405298412962591 -0.47307354473530089 0 -0.43973595487078082 -0.48510994274581759 0 -0.43453424116129707 -0.4704641309973987 0 -0.45689259444512947 -0.50000000000000044 0 -0.45405298412962591 -0.47307354473530089 0 -0.43973595487078082 -0.48510994274581759 0 -0.45689259444512947 -0.50000000000000044 0 -0.43973595487078082 -0.48510994274581759 0 -0.42841613160213537 -0.5 0 -0.45121337381412219 -0.44614708947060128 0 -0.4422490937655868 -0.44024575072862521 0 -0.46033145833812372 -0.44240926889198129 0 -0.45121337381412219 -0.44614708947060128 0 -0.4422490937655868 -0.44024575072862521 0 -0.44242700309606597 -0.44724898024374571 0 -0.4422490937655868 -0.44024575072862521 0 -0.44242700309606597 -0.44724898024374571 0 -0.43042321930296429 -0.44532955656991507 0 -0.44242700309606597 -0.44724898024374571 0 -0.44019192448441657 -0.456155469519267 0 -0.43042321930296429 -0.44532955656991507 0 -0.45121337381412219 -0.44614708947060128 0 -0.44242700309606597 -0.44724898024374571 0 -0.44019192448441657 -0.456155469519267 0 -0.45405298412962591 -0.47307354473530089 0 -0.45121337381412219 -0.44614708947060128 0 -0.45405298412962591 -0.47307354473530089 0 -0.45121337381412219 -0.44614708947060128 0 -0.44019192448441657 -0.456155469519267 0 -0.45405298412962591 -0.47307354473530089 0 -0.44019192448441657 -0.456155469519267 0 -0.43453424116129707 -0.4704641309973987 0 -0.45405298412962591 -0.47307354473530089 0 -0.45121337381412219 -0.44614708947060128 0 -0.45895706770390232 -0.45204685670628492 0 -0.45405298412962591 -0.47307354473530089 0 -0.46532854884028368 -0.45940731026721487 0 -0.45895706770390232 -0.45204685670628492 0 -0.46532854884028368 -0.45940731026721487 0 -0.45895706770390232 -0.45204685670628492 0 -0.46033145833812372 -0.44240926889198129 0 -0.45121337381412219 -0.44614708947060128 0 -0.45895706770390232 -0.45204685670628492 0 -0.46033145833812372 -0.44240926889198129 0 -0.46729429876894762 -0.43935829750722738 0 -0.4830340211968191 -0.45875879449030471 0 -0.4845964013740845 -0.4533699071458081 0 -0.46033145833812372 -0.44240926889198129 0 -0.46729429876894762 -0.43935829750722738 0 -0.4830340211968191 -0.45875879449030471 0 -0.46729429876894762 -0.43935829750722738 0 -0.4845964013740845 -0.4533699071458081 0 -0.46033145833812372 -0.44240926889198129 0 -0.4830340211968191 -0.45875879449030471 0 -0.46729429876894762 -0.43935829750722738 0 -0.479559194399101 -0.43911436132366771 0 -0.4845964013740845 -0.4533699071458081 0 -0.47728164777231558 -0.4785996071165966 0 -0.4830340211968191 -0.45875879449030471 0 -0.47728164777231558 -0.4785996071165966 0 -0.46532854884028368 -0.45940731026721487 0 -0.4830340211968191 -0.45875879449030471 0 -0.46532854884028368 -0.45940731026721487 0 -0.46033145833812372 -0.44240926889198129 0 -0.4830340211968191 -0.45875879449030471 0 -0.4830340211968191 -0.45875879449030471 0 -0.4845964013740845 -0.4533699071458081 0 -0.49999999999999661 -0.47097704960403852 0 -0.4830340211968191 -0.45875879449030471 0 -0.49999999999999961 -0.4658440679978858 0 -0.4830340211968191 -0.45875879449030471 0 -0.4845964013740845 -0.4533699071458081 0 -0.49999999999999961 -0.4658440679978858 0 -0.49999999999999661 -0.47097704960403852 0 -0.4830340211968191 -0.45875879449030471 0 -0.4845964013740845 -0.4533699071458081 0 -0.49999999999999961 -0.4658440679978858 0 -0.5 -0.44767083444357098 0 -0.4845964013740845 -0.4533699071458081 0 -0.49999999999999961 -0.4658440679978858 0 -0.4845964013740845 -0.4533699071458081 0 -0.5 -0.44767083444357098 0 -0.49007571233826341 -0.43447092856100877 0 -0.4845964013740845 -0.4533699071458081 0 -0.49007571233826341 -0.43447092856100877 0 -0.479559194399101 -0.43911436132366771 0 -0.4845964013740845 -0.4533699071458081 0 -0.49007571233826341 -0.43447092856100877 0 -0.49007571233826341 -0.43447092856100877 0 -0.49555502330244228 -0.41557194997620939 0 -0.48308720126212001 -0.42011479327980711 0 -0.5 -0.44767083444357098 0 -0.49007571233826341 -0.43447092856100877 0 -0.49999999999999872 -0.42949760088925609 0 -0.49007571233826341 -0.43447092856100877 0 -0.49555502330244228 -0.41557194997620939 0 -0.49007571233826341 -0.43447092856100877 0 -0.49999999999999872 -0.42949760088925609 0 -0.49555502330244228 -0.41557194997620939 0 -0.49999999999999872 -0.42949760088925609 0 -0.49555502330244228 -0.41557194997620939 0 -0.49999999999999872 -0.42949760088925609 0 -0.49555502330244228 -0.41557194997620939 0 -0.49999999999999939 -0.40024054791375741 0 -0.49555502330244228 -0.41557194997620939 0 -0.49999999999999939 -0.40024054791375741 0 -0.49555502330244228 -0.41557194997620939 0 -0.48308720126212001 -0.42011479327980711 0 -0.48017075690217048 -0.40704831406391989 0 -0.48308720126212001 -0.42011479327980711 0 -0.48017075690217048 -0.40704831406391989 0 -0.47201744484553931 -0.41636257052853781 0 -0.48017075690217048 -0.40704831406391989 0 -0.47201744484553931 -0.41636257052853781 0 -0.46594870531705618 -0.40470601036541087 0 -0.47201744484553931 -0.41636257052853781 0 -0.47627036511510928 -0.4292583120806267 0 -0.46476377415712161 -0.42459747985895602 0 -0.46729429876894762 -0.43935829750722738 0 -0.47627036511510928 -0.4292583120806267 0 -0.46476377415712161 -0.42459747985895602 0 -0.46729429876894762 -0.43935829750722738 0 -0.479559194399101 -0.43911436132366771 0 -0.47627036511510928 -0.4292583120806267 0 -0.479559194399101 -0.43911436132366771 0 -0.49007571233826341 -0.43447092856100877 0 -0.47627036511510928 -0.4292583120806267 0 -0.48308720126212001 -0.42011479327980711 0 -0.47201744484553931 -0.41636257052853781 0 -0.47627036511510928 -0.4292583120806267 0 -0.49007571233826341 -0.43447092856100877 0 -0.48308720126212001 -0.42011479327980711 0 -0.47627036511510928 -0.4292583120806267 0 -0.5 -0.37615469370796661 0 -0.48773470393351459 -0.39107170060030172 0 -0.47991438456458763 -0.36657145122439377 0 -0.5 -0.37615469370796661 0 -0.48773470393351459 -0.39107170060030172 0 -0.49999999999999939 -0.40024054791375741 0 -0.49555502330244228 -0.41557194997620939 0 -0.48773470393351459 -0.39107170060030172 0 -0.49999999999999939 -0.40024054791375741 0 -0.49555502330244228 -0.41557194997620939 0 -0.48017075690217048 -0.40704831406391989 0 -0.48773470393351459 -0.39107170060030172 0 -0.49555502330244228 -0.41557194997620939 0 -0.48773470393351459 -0.39107170060030172 0 -0.48017075690217048 -0.40704831406391989 0 -0.48773470393351459 -0.39107170060030172 0 -0.47401840227218323 -0.39565188186331768 0 -0.48017075690217048 -0.40704831406391989 0 -0.47401840227218323 -0.39565188186331768 0 -0.46594870531705618 -0.40470601036541087 0 -0.48773470393351459 -0.39107170060030172 0 -0.47991438456458763 -0.36657145122439377 0 -0.48773470393351459 -0.39107170060030172 0 -0.47373804209450332 -0.38204112143425978 0 -0.47991438456458763 -0.36657145122439377 0 -0.48773470393351459 -0.39107170060030172 0 -0.47401840227218323 -0.39565188186331768 0 -0.47373804209450332 -0.38204112143425978 0 -0.47401840227218323 -0.39565188186331768 0 -0.47373804209450332 -0.38204112143425978 0 -0.46148244580707071 -0.39332200182318527 0 -0.47373804209450332 -0.38204112143425978 0 -0.46148244580707071 -0.39332200182318527 0 -0.4476392293563643 -0.37371378910624697 0 -0.47401840227218323 -0.39565188186331768 0 -0.46148244580707071 -0.39332200182318527 0 -0.46594870531705618 -0.40470601036541087 0 -0.46148244580707071 -0.39332200182318527 0 -0.46594870531705618 -0.40470601036541087 0 -0.45305813841390569 -0.40313529865555842 0 -0.46148244580707071 -0.39332200182318527 0 -0.43895431240796029 -0.39330517679348681 0 -0.46148244580707071 -0.39332200182318527 0 -0.45305813841390569 -0.40313529865555842 0 -0.43895431240796029 -0.39330517679348681 0 -0.45305813841390569 -0.40313529865555842 0 -0.43895431240796029 -0.39330517679348681 0 -0.44289729498636332 -0.40986882980900641 0 -0.43895431240796029 -0.39330517679348681 0 -0.42963926502663552 -0.37909202820398707 0 -0.4476392293563643 -0.37371378910624697 0 -0.46148244580707071 -0.39332200182318527 0 -0.43895431240796029 -0.39330517679348681 0 -0.4476392293563643 -0.37371378910624697 0 -0.46729429876894762 -0.43935829750722738 0 -0.46476377415712161 -0.42459747985895602 0 -0.44999219616380981 -0.42534668786864788 0 -0.46033145833812372 -0.44240926889198129 0 -0.46729429876894762 -0.43935829750722738 0 -0.44999219616380981 -0.42534668786864788 0 -0.46729429876894762 -0.43935829750722738 0 -0.44999219616380981 -0.42534668786864788 0 -0.47201744484553931 -0.41636257052853781 0 -0.46476377415712161 -0.42459747985895602 0 -0.45600793355107772 -0.4144744744867026 0 -0.47201744484553931 -0.41636257052853781 0 -0.46594870531705618 -0.40470601036541087 0 -0.45600793355107772 -0.4144744744867026 0 -0.46594870531705618 -0.40470601036541087 0 -0.45305813841390569 -0.40313529865555842 0 -0.45600793355107772 -0.4144744744867026 0 -0.46476377415712161 -0.42459747985895602 
[...]
<PointData Scalars="" Vectors="displacement," Tensors="">
<DataArray type="Float64" Name="displacement" NumberOfComponents="3" format="ascii">
-0.034997418646329791 -0.034999138963510451 0 -0.034678356827868337 -0.033963871837067477 0 -0.034998405241326344 -0.031985987151936603 0 -0.034997418646329791 -0.034999138963510451 0 -0.033979954252960715 -0.034644119651176281 0 -0.034678356827868337 -0.033963871837067477 0 -0.034997418646329791 -0.034999138963510451 0 -0.033979954252960715 -0.034644119651176281 0 -0.032975189494902149 -0.03499783739178499 0 -0.033979954252960715 -0.034644119651176281 0 -0.032975189494902149 -0.03499783739178499 0 -0.034231961160258242 -0.034493387459387084 0 -0.033979954252960715 -0.034644119651176281 0 -0.034678356827868337 -0.033963871837067477 0 -0.034231961160258242 -0.034493387459387084 0 -0.034999967640943076 -0.031982478694932315 0 -0.035941143475571542 -0.031836599486646786 0 -0.034678356827868337 -0.033963871837067477 0 -0.034998405241326344 -0.031985987151936603 0 -0.03536065921526689 -0.032176374031668328 0 -0.034678356827868337 -0.033963871837067477 0 -0.03536065921526689 -0.032176374031668328 0 -0.036484522398477423 -0.0329282393937608 0 -0.036447354381026899 -0.031523272320779089 0 -0.035818338966754383 -0.030721122689082257 0 -0.036569122672436491 -0.030369186503621963 0 -0.034999879071716283 -0.031981904624222235 0 -0.036447354381026899 -0.031523272320779089 0 -0.035818338966754383 -0.030721122689082257 0 -0.034999879071716283 -0.031981904624222235 0 -0.035818338966754383 -0.030721122689082257 0 -0.034999786831345497 -0.029989172694069775 0 -0.037744104223486674 -0.031537729937612363 0 -0.038164118013215259 -0.030889603293509184 0 -0.038041138824584556 -0.032339296532905945 0 -0.037744104223486674 -0.031537729937612363 0 -0.038164118013215259 -0.030889603293509184 0 -0.037749597864571105 -0.030908463230639779 0 -0.038164118013215259 -0.030889603293509184 0 -0.037749597864571105 -0.030908463230639779 0 -0.037909706698360406 -0.030088894427758941 0 -0.037749597864571105 -0.030908463230639779 0 -0.037278145045822185 -0.03075068023037383 0 -0.037909706698360406 -0.030088894427758941 0 -0.037744104223486674 -0.031537729937612363 0 -0.037749597864571105 -0.030908463230639779 0 -0.037278145045822185 -0.03075068023037383 0 -0.035941143475571542 -0.031836599486646786 0 -0.037675102926749374 -0.031567338896523016 0 -0.036447354381026899 -0.031523272320779089 0 -0.037744104223486674 -0.031537729937612363 0 -0.037278145045822185 -0.03075068023037383 0 -0.036447354381026899 -0.031523272320779089 0 -0.037278145045822185 -0.03075068023037383 0 -0.036569122672436491 -0.030369186503621963 0 -0.03536065921526689 -0.032176374031668328 0 -0.037744104223486674 -0.031537729937612363 0 -0.037175602507983345 -0.032303662156528433 0 -0.03536065921526689 -0.032176374031668328 0 -0.036484522398477423 -0.0329282393937608 0 -0.037175602507983345 -0.032303662156528433 0 -0.036484522398477423 -0.0329282393937608 0 -0.037175602507983345 -0.032303662156528433 0 -0.038041138824584556 -0.032339296532905945 0 -0.037744104223486674 -0.031537729937612363 0 -0.037175602507983345 -0.032303662156528433 0 -0.038041138824584556 -0.032339296532905945 0 -0.021625640819722312 -0.029521517562845784 0 -0.022587306362596104 -0.029019342007448736 0 -0.022349769445281314 -0.028940664198420386 0 -0.021692789653432347 -0.029728694007111582 0 -0.021625640819722312 -0.029521517562845784 0 -0.022587306362596104 -0.029019342007448736 0 -0.020961547183025901 -0.029565022894358813 0 -0.027155988090742302 -0.032621543496424543 0 -0.029564339704999262 -0.030863105697298696 0 -0.031842416701159823 -0.032962103189493788 0 -0.021251905597508117 -0.029946191239606301 0 -0.021304369312241694 -0.029900084957564379 0 -0.021440736513307294 -0.029886569703051008 0 -0.036046648675480582 -0.034513230988863795 0 -0.031842416701159823 -0.032962103189493788 0 -0.034678356827868337 -0.033963871837067477 0 -0.036484522398477423 -0.0329282393937608 0 -0.036510823342811707 -0.034554808192902083 0 -0.036484522398477423 -0.0329282393937608 0 -0.038041138824584556 -0.032339296532905945 0 -0.036510823342811707 -0.034554808192902083 0 -0.031842416701159823 -0.032962103189493788 0 -0.027155988090742302 -0.032621543496424543 0 -0.032968185658304436 -0.035000126890554782 0 -0.032107952370449395 -0.036024061164097163 0 -0.032609272290650623 -0.034999825553254704 0 -0.032107952370449395 -0.036024061164097163 0 -0.031760293427638732 -0.035918817112127785 0 -0.032609272290650623 -0.034999825553254704 0 -0.032968327343358771 -0.035001257337643331 0 -0.031842416701159823 -0.032962103189493788 0 -0.031706284538085446 -0.036049835914368986 0 -0.032609037053099171 -0.034999982854698762 0 -0.031336956195279056 -0.035000002633515298 0 -0.027155988090742302 -0.032621543496424543 0 -0.032609713106993753 -0.035000580646713068 0 -0.031706284538085446 -0.036049835914368986 0 -0.031336956195279056 -0.035000002633515298 0 -0.030400294857628091 -0.035684942953349001 0 -0.027155988090742302 -0.032621543496424543 0 -0.025430915598786494 -0.032619527541215998 0 -0.021304369312241694 -0.029900084957564379 0 -0.021440736513307294 -0.029886569703051008 0 -0.021298795173791379 -0.02984336092822143 0 -0.021298795173791379 -0.02984336092822143 0 -0.021197880239771792 -0.029781879534510215 0 -0.02120363480816637 -0.029878099532194283 0 -0.031336956195279056 -0.035000002633515298 0 -0.030400294857628091 -0.035684942953349001 0 -0.030064714207592443 -0.034999936748194939 0 -0.025430915598786494 -0.032619527541215998 0 -0.026684713073371939 -0.034048909589097134 0 -0.030400294857628091 -0.035684942953349001 0 -0.030064714207592443 -0.034999936748194939 0 -0.029034040262920571 -0.035309419090636049 0 -0.030065499602715491 -0.034999382440903178 0 -0.026684713073371939 -0.034048909589097134 0 -0.030064813130272778 -0.034999989786762158 0 -0.029086969858494204 -0.035309047618891344 0 -0.028016826510616166 -0.034999999223357857 0 -0.026684713073371939 -0.034048909589097134 0 -0.028019064835593587 -0.03500058899365649 0 -0.021197880239771792 -0.029781879534510215 0 -0.02120363480816637 -0.029878099532194283 0 -0.021078061898598805 -0.029914709393007395 0 -0.02120363480816637 -0.029878099532194283 0 -0.021078061898598805 -0.029914709393007395 0 -0.021169195762053131 -0.029935118733213348 0 -0.021078061898598805 -0.029914709393007395 0 -0.021169195762053131 -0.029935118733213348 0 -0.021088375349770636 -0.029982833915045769 0 -0.021169195762053131 -0.029935118733213348 0 -0.021239966751602734 -0.029911430228913238 0 -0.021203440957048684 -0.029914505638406017 0 -0.021251905597508117 -0.029946191239606301 0 -0.021239966751602734 -0.029911430228913238 0 -0.021203440957048684 -0.029914505638406017 0 -0.021251905597508117 -0.029946191239606301 0 -0.021304369312241694 -0.029900084957564379 0 -0.021239966751602734 -0.029911430228913238 0 -0.021304369312241694 -0.029900084957564379 0 -0.021298795173791379 -0.02984336092822143 0 -0.021239966751602734 -0.029911430228913238 0 -0.02120363480816637 -0.029878099532194283 0 -0.021169195762053131 -0.029935118733213348 0 -0.021239966751602734 -0.029911430228913238 0 -0.021298795173791379 -0.02984336092822143 0 -0.02120363480816637 -0.029878099532194283 0 -0.021239966751602734 -0.029911430228913238 0 -0.026330756754395494 -0.034999953942302126 0 -0.027353409292213329 -0.03581580270665638 0 -0.025540607565293902 -0.036222639215572471 0 -0.026330756754395494 -0.034999953942302126 0 -0.027353409292213329 -0.03581580270665638 0 -0.028016643368084921 -0.034999954640815387 0 -0.029018950951410476 -0.035279271163383488 0 -0.027353409292213329 -0.03581580270665638 0 -0.028016643368084921 -0.034999954640815387 0 -0.021197880239771792 -0.029781879534510215 0 -0.021078061898598805 -0.029914709393007395 0 -0.020843773109221489 -0.029856040756870757 0 -0.026684713073371939 -0.034048909589097134 0 -0.023819854201603687 -0.032705120719447915 0 -0.021078061898598805 -0.029914709393007395 0 -0.020843773109221489 -0.029856040756870757 0 -0.020904695411355142 -0.029998569785400362 0 -0.021078061898598805 -0.029914709393007395 0 -0.020904695411355142 -0.029998569785400362 0 -0.021088375349770636 -0.029982833915045769 0 -0.023819854201603687 -0.032705120719447915 0 -0.023112279369953026 -0.033260894134843608 0 -0.020843773109221489 -0.029856040756870757 0 -0.020653420711108102 -0.030132852501332862 0 -0.020486352659008725 -0.030299184472244632 0 -0.020843773109221489 -0.029856040756870757 0 -0.020904695411355142 -0.029998569785400362 0 -0.020653420711108102 -0.030132852501332862 0 -0.020904695411355142 -0.029998569785400362 0 -0.020653420711108102 -0.030132852501332862 0 -0.020824506353538243 -0.030073068074471982 0 -0.020653420711108102 -0.030132852501332862 0 -0.020824506353538243 -0.030073068074471982 0 -0.020292279197693261 -0.030046182917802693 0 -0.020904695411355142 -0.029998569785400362 0 -0.020824506353538243 -0.030073068074471982 0 -0.021088375349770636 -0.029982833915045769 0 -0.020824506353538243 -0.030073068074471982 0 -0.021088375349770636 -0.029982833915045769 0 -0.021212605922386087 -0.029943096338976165 0 -0.020853194500017658 -0.029960274694853573 0 -0.02096509729007338 -0.029733264560775408 0 -0.020824506353538243 -0.030073068074471982 0 -0.021212605922386087 -0.029943096338976165 0 -0.021808713929562035 -0.0296304446663746 0 -0.021212605922386087 -0.029943096338976165 0 -0.021808713929562035 -0.0296304446663746 0 -0.021284969720316731 -0.029706116788674949 0 -0.020103665339197167 -0.030019473846447181 0 -0.020001626357613024 -0.029898378627722738 0 -0.020292279197693261 -0.030046182917802693 0 -0.020824506353538243 -0.030073068074471982 0 -0.020103665339197167 -0.030019473846447181 0 -0.020292279197693261 -0.030046182917802693 0 -0.021251905597508117 -0.029946191239606301 0 -0.021203440957048684 -0.029914505638406017 0 -0.021161378240090123 -0.029759027054381371 0 -0.021692789653432347 -0.029728694007111582 0 -0.021625640819722312 -0.029521517562845784 0 -0.021161378240090123 -0.029759027054381371 0 -0.020961547183025901 -0.029565022894358813 0 -0.021303065642438682 -0.029772675847522887 0 -0.021169195762053131 -0.029935118733213348 0 -0.021203440957048684 -0.029914505638406017 0 -0.021181169719887174 -0.029906412428283763 0 -0.021169195762053131 -0.029935118733213348 0 -0.021088375349770636 -0.029982833915045769 0 -0.021181169719887174 -0.029906412428283763 0 -0.021088375349770636 -0.029982833915045769 0 -0.021212605922386087 -0.029943096338976165 0 -0.021181169719887174 -0.029906412428283763 0 -0.021203440957048684 -0.029914505638406017 0 -0.021181169719887174 -0.029906412428283763 0 -0.021161378240090123 -0.029759027054381371 0 -0.021181169719887174 -0.029906412428283763 0 -0.021155874081162117 -0.029762580825911204 0 -0.021284969720316731 -0.029706116788674949 0 -0.021181169719887174 -0.029906412428283763 0 -0.021155874081162117 -0.029762580825911204 0 -0.021161378240090123 -0.029759027054381371 0 -0.021155874081162117 -0.029762580825911204 0 -0.021284969720316731 -0.029706116788674949 0 -0.021009809193595547 -0.029665925247368441 0 -0.021212605922386087 -0.029943096338976165 0 -0.021181169719887174 -0.029906412428283763 0 -0.021284969720316731 -0.029706116788674949 0 -0.029564339704999262 -0.030863105697298696 0 -0.029951776560584824 -0.030185771616123472 0 -0.038164118013215259 -0.030889603293509184 0 -0.038041138824584556 -0.032339296532905945 0 -0.039054262612170119 -0.030545858486954128 0 -0.021155874081162117 -0.029762580825911204 0 -0.021009809193595547 -0.029665925247368441 0 -0.021161378240090123 -0.029759027054381371 0 -0.021692789653432347 -0.029728694007111582 0 -0.021009809193595547 -0.029665925247368441 0 -0.021161378240090123 -0.029759027054381371 0 -0.039054262612170119 -0.030545858486954128 0 -0.038491473863563906 -0.030224064504501314 0 -0.038736123719098722 -0.029516891846819354 0 -0.039054262612170119 -0.030545858486954128 0 -0.038736123719098722 -0.029516891846819354 0 -0.039191072677900757 -0.029269240678337794 0 -0.038164118013215259 -0.030889603293509184 0 -0.039054262612170119 -0.030545858486954128 0 -0.038491473863563906 -0.030224064504501314 0 -0.038491473863563906 -0.030224064504501314 0 -0.038736123719098722 -0.029516891846819354 0 -0.037909706698360406 -0.030088894427758941 0 -0.039054262612170119 -0.030545858486954128 0 -0.039930958209699434 -0.029141784414362808 0 -0.039191072677900757 -0.029269240678337794 0 -0.021009809193595547 -0.029665925247368441 0 -0.021488575254238775 -0.029200798180251151 0 -0.021364752471688005 -0.028302664645369745 0 -0.021284969720316731 -0.029706116788674949 0 -0.021009809193595547 -0.029665925247368441 0 -0.021488575254238775 -0.029200798180251151 0 -0.029951776560584824 -0.030185771616123472 0 -0.031524489422629635 -0.028445892980935059 0 -0.039930958209699434 -0.029141784414362808 0 -0.039328566672925079 -0.028480238073777083 0 -0.039804239202862461 -0.027994064053692952 0 -0.039930958209699434 -0.029141784414362808 0 -0.039191072677900757 -0.029269240678337794 0 -0.039328566672925079 -0.028480238073777083 0 -0.038613604625699467 -0.028572584598633752 0 -0.039191072677900757 -0.029269240678337794 0 -0.039328566672925079 -0.028480238073777083 0 -0.038613604625699467 -0.028572584598633752 0 -0.038736123719098722 -0.029516891846819354 0 -0.037924074016297854 -0.029175824352496188 0 -0.038613604625699467 -0.028572584598633752 0 -0.038736123719098722 -0.029516891846819354 0 -0.039191072677900757 -0.029269240678337794 0 -0.020103665339197167 -0.030019473846447181 0 -0.020001626357613024 -0.029898378627722738 0 -0.019821140681305863 -0.029865671214816134 0 -0.020001626357613024 -0.029898378627722738 0 -0.019821140681305863 -0.029865671214816134 0 -0.019639200338694457 -0.029733771771111396 0 -0.020103665339197167 -0.030019473846447181 0 -0.019821140681305863 -0.029865671214816134 0 -0.019655679817169067 -0.029738218470468467 0 -0.021808713929562035 -0.0296304446663746 0 -0.021488575254238775 -0.029200798180251151 0 -0.022383331772095914 -0.028403696926209671 0 -0.02096509729007338 -0.029733264560775408 0 -0.020779526168413127 -0.029025513532983323 0 -0.021808713929562035 -0.0296304446663746 0 -0.021284969720316731 -0.029706116788674949 0 -0.021488575254238775 -0.029200798180251151 0 -0.019662774402361773 -0.029769834674258696 0 -0.019512874673781131 -0.029643814759276368 0 -0.019821140681305863 -0.029865671214816134 0 -0.019655679817169067 -0.029738218470468467 0 -0.019624863225806477 -0.02963678124716132 0 -0.021364752471688005 -0.028302664645369745 0 -0.022383331772095914 -0.028403696926209671 0 -0.022604123628337084 -0.026615145023613458 0 -0.021488575254238775 -0.029200798180251151 0 -0.021364752471688005 -0.028302664645369745 0 -0.022383331772095914 -0.028403696926209671 0 -0.019655679817169067 -0.029738218470468467 0 -0.019624863225806477 -0.02963678124716132 0 -0.019528649325702065 -0.029381688167286927 0 -0.019821140681305863 -0.029865671214816134 0 -0.019116988263624859 -0.029562593530926638 0 -0.019639200338694457 -0.029733771771111396 0 -0.019116988263624859 -0.029562593530926638 0 -0.019639200338694457 -0.029733771771111396 0 -0.019305950715892441 -0.029232692789214358 0 -0.019639200338694457 -0.029733771771111396 0 -0.019305950715892441 -0.029232692789214358 0 -0.019974402680680719 -0.029735132350528538 0 -0.020001626357613024 -0.029898378627722738 0 -0.019639200338694457 -0.029733771771111396 0 -0.019974402680680719 -0.029735132350528538 0 -0.019305950715892441 -0.029232692789214358 0 -0.019332026825164141 -0.028251748048329035 0 -0.020362653846516702 -0.029285987483544346 0 -0.019305950715892441 -0.029232692789214358 0 -0.018779994038406311 -0.028445944054035718 0 -0.019332026825164141 -0.028251748048329035 0 -0.019116988263624859 -0.029562593530926638 0 -0.019305950715892441 -0.029232692789214358 0 -0.018872006231796377 -0.028999860615549093 0 -0.018872006231796377 -0.028999860615549093 0 -0.018779994038406311 -0.028445944054035718 0 -0.018363829250415097 -0.028631004882369575 0 -0.019305950715892441 -0.029232692789214358 0 -0.018872006231796377 -0.028999860615549093 0 -0.018779994038406311 -0.028445944054035718 0 -0.021364752471688005 -0.028302664645369745 0 -0.022604123628337084 -0.026615145023613458 0 -0.022604734521927572 -0.026471389463273806 0 -0.019116988263624859 -0.029562593530926638 0 -0.018872006231796377 -0.028999860615549093 0 -0.018363829250415097 -0.028631004882369575 0 -0.020779526168413127 -0.029025513532983323 0 -0.024075371856519267 -0.027997956977091201 0 -0.039930958209699434 -0.029141784414362808 0 -0.041015286194945134 -0.027614951466353801 0 -0.040391148126586909 -0.027756677642612179 0 -0.019512874673781131 -0.029643814759276368 0 -0.024075371856519267 -0.027997956977091201 0 -0.031524489422629635 -0.028445892980935059 0 -0.026677784231401585 -0.027254390623458705 0 -0.018779994038406311 -0.028445944054035718 0 -0.018363829250415097 -0.028631004882369575 0 -0.018295530355153033 -0.028489203565203645 0 -0.024075371856519267 -0.027997956977091201 0 -0.026677784231401585 -0.027254390623458705 0 -0.041015286194945134 -0.027614951466353801 0 -0.040391148126586909 -0.027756677642612179 0 -0.040671225818316073 -0.027505941914153453 0 -0.040391148126586909 -0.027756677642612179 0 -0.040503055392587181 -0.027346803544772869 0 -0.040005421903703466 -0.027357030996522456 0 -0.040391148126586909 -0.027756677642612179 0 -0.040671225818316073 -0.027505941914153453 0 -0.040503055392587181 -0.027346803544772869 0 -0.026677784231401585 -0.027254390623458705 0 -0.026845585226951411 -0.024758432091741629 0 -0.026677784231401585 -0.027254390623458705 0 -0.040485974186814246 -0.025023029431966461 0 -0.041015286194945134 -0.027614951466353801 0 -0.040723720552760946 -0.026917193985517646 0 -0.04077744936387321 -0.026359503736966661 0 -0.041015286194945134 -0.027614951466353801 0 -0.04077744936387321 -0.026359503736966661 0 -0.041035992525435078 -0.025559998946151193 0 -0.040503055392587181 -0.027346803544772869 0 -0.040237958325390594 -0.026976154509760458 0 -0.040005421903703466 -0.027357030996522456 0 -0.040671225818316073 -0.027505941914153453 0 -0.040503055392587181 -0.027346803544772869 0 -0.040776159734769689 -0.027303912241901249 0 -0.040503055392587181 -0.027346803544772869 0 -0.040631661619520719 -0.027150957293720756 0 -0.040776159734769689 -0.027303912241901249 0 -0.040631661619520719 -0.027150957293720756 0 -0.040723720552760946 -0.026917193985517646 0 -0.040776159734769689 -0.027303912241901249 0 -0.040503055392587181 -0.027346803544772869 0 -0.040631661619520719 -0.027150957293720756 0 -0.040525185628698904 -0.027033823976483743 0 -0.040631661619520719 -0.027150957293720756 0 -0.040525185628698904 -0.027033823976483743 0 -0.040723720552760946 -0.026917193985517646 0 -0.040525185628698904 -0.027033823976483743 0 -0.040237958325390594 -0.026976154509760458 0 -0.04051052806608485 -0.026766912813772695 0 -0.040503055392587181 -0.027346803544772869 0 -0.040525185628698904 -0.027033823976483743 0 -0.040237958325390594 -0.026976154509760458 0 -0.040237958325390594 -0.026976154509760458 0 -0.040268906324694834 -0.026575784140359073 0 -0.04051052806608485 -0.026766912813772695 0 -0.040268906324694834 -0.026575784140359073 0 -0.040525535251766873 -0.026497108402586799 0 -0.04051052806608485 -0.026766912813772695 0 -0.040268906324694834 -0.026575784140359073 0 -0.040525535251766873 -0.026497108402586799 0 -0.040446602165490342 -0.026263130091263142 0 -0.040525535251766873 -0.026497108402586799 0 -0.04077744936387321 -0.026359503736966661 0 -0.040446602165490342 -0.026263130091263142 0 -0.040650278471986712 -0.026616778561299011 0 -0.040723720552760946 -0.026917193985517646 0 -0.04077744936387321 -0.026359503736966661 0 -0.040525535251766873 -0.026497108402586799 0 -0.040650278471986712 -0.026616778561299011 0 -0.04077744936387321 -0.026359503736966661 0 -0.040525535251766873 -0.026497108402586799 0 -0.040650278471986712 -0.026616778561299011 0 -0.04051052806608485 -0.02676691281377