<?xml version="1.0"?>
<VTKFile type="UnstructuredGrid" version="0.1" byte_order="LittleEndian">
<UnstructuredGrid>
<Piece NumberOfPoints="31153" NumberOfCells="10907">
<Points>
<DataArray type="Float64" NumberOfComponents="3" format="ascii">
-0.5 -0.5 0 -0.47728164777231558 -0.4785996071165966 0 -0.45689259444512947 -0.50000000000000044 0 -0.5 -0.5 0 -0.49007891724228247 -0.4770838628027354 0 -0.47728164777231558 -0.4785996071165966 0 -0.5 -0.5 0 -0.49007891724228247 -0.4770838628027354 0 -0.49999999999999661 -0.47097704960403852 0 -0.49007891724228247 -0.4770838628027354 0 -0.49999999999999661 -0.47097704960403852 0 -0.4830340211968191 -0.45875879449030471 0 -0.49007891724228247 -0.4770838628027354 0 -0.47728164777231558 -0.4785996071165966 0 -0.4830340211968191 -0.45875879449030471 0 -0.45689259444512947 -0.50000000000000044 0 -0.45405298412962591 -0.47307354473530089 0 -0.47728164777231558 -0.4785996071165966 0 -0.45689259444512947 -0.50000000000000044 0 -0.45405298412962591 -0.47307354473530089 0 -0.47728164777231558 -0.4785996071165966 0 -0.45405298412962591 -0.47307354473530089 0 -0.46532854884028368 -0.45940731026721487 0 -0.45405298412962591 -0.47307354473530089 0 -0.43973595487078082 -0.48510994274581759 0 -0.43453424116129707 -0.4704641309973987 0 -0.45689259444512947 -0.50000000000000044 0 -0.45405298412962591 -0.47307354473530089 0 -0.43973595487078082 -0.48510994274581759 0 -0.45689259444512947 -0.50000000000000044 0 -0.43973595487078082 -0.48510994274581759 0 -0.42841613160213537 -0.5 0 -0.45121337381412219 -0.44614708947060128 0 -0.4422490937655868 -0.44024575072862521 0 -0.46033145833812372 -0.44240926889198129 0 -0.45121337381412219 -0.44614708947060128 0 -0.4422490937655868 -0.44024575072862521 0 -0.44242700309606597 -0.44724898024374571 0 -0.4422490937655868 -0.44024575072862521 0 -0.44242700309606597 -0.44724898024374571 0 -0.43042321930296429 -0.44532955656991507 0 -0.44242700309606597 -0.44724898024374571 0 -0.44019192448441657 -0.456155469519267 0 -0.43042321930296429 -0.44532955656991507 0 -0.45121337381412219 -0.44614708947060128 0 -0.44242700309606597 -0.44724898024374571 0 -0.44019192448441657 -0.456155469519267 0 -0.45405298412962591 -0.47307354473530089 0 -0.45121337381412219 -0.44614708947060128 0 -0.45405298412962591 -0.47307354473530089 0 -0.45121337381412219 -0.44614708947060128 0 -0.44019192448441657 -0.456155469519267 0 -0.45405298412962591 -0.47307354473530089 0 -0.44019192448441657 -0.456155469519267 0 -0.43453424116129707 -0.4704641309973987 0 -0.45405298412962591 -0.47307354473530089 0 -0.45121337381412219 -0.44614708947060128 0 -0.45895706770390232 -0.45204685670628492 0 -0.45405298412962591 -0.47307354473530089 0 -0.46532854884028368 -0.45940731026721487 0 -0.45895706770390232 -0.45204685670628492 0 -0.46532854884028368 -0.45940731026721487 0 -0.45895706770390232 -0.45204685670628492 0 -0.46033145833812372 -0.44240926889198129 0 -0.45121337381412219 -0.44614708947060128 0 -0.45895706770390232 -0.45204685670628492 0 -0.46033145833812372 -0.44240926889198129 0 -0.46729429876894762 -0.43935829750722738 0 -0.4830340211968191 -0.45875879449030471 0 -0.4845964013740845 -0.4533699071458081 0 -0.46033145833812372 -0.44240926889198129 0 -0.46729429876894762 -0.43935829750722738 0 -0.4830340211968191 -0.45875879449030471 0 -0.46729429876894762 -0.43935829750722738 0 -0.4845964013740845 -0.4533699071458081 0 -0.46033145833812372 -0.44240926889198129 0 -0.4830340211968191 -0.45875879449030471 0 -0.46729429876894762 -0.43935829750722738 0 -0.479559194399101 -0.43911436132366771 0 -0.4845964013740845 -0.4533699071458081 0 -0.47728164777231558 -0.4785996071165966 0 -0.4830340211968191 -0.45875879449030471 0 -0.47728164777231558 -0.4785996071165966 0 -0.46532854884028368 -0.45940731026721487 0 -0.4830340211968191 -0.45875879449030471 0 -0.46532854884028368 -0.45940731026721487 0 -0.46033145833812372 -0.44240926889198129 0 -0.4830340211968191 -0.45875879449030471 0 -0.4830340211968191 -0.45875879449030471 0 -0.4845964013740845 -0.4533699071458081 0 -0.49999999999999661 -0.47097704960403852 0 -0.4830340211968191 -0.45875879449030471 0 -0.49999999999999961 -0.4658440679978858 0 -0.4830340211968191 -0.45875879449030471 0 -0.4845964013740845 -0.4533699071458081 0 -0.49999999999999961 -0.4658440679978858 0 -0.49999999999999661 -0.47097704960403852 0 -0.4830340211968191 -0.45875879449030471 0 -0.4845964013740845 -0.4533699071458081 0 -0.49999999999999961 -0.4658440679978858 0 -0.5 -0.44767083444357098 0 -0.4845964013740845 -0.4533699071458081 0 -0.49999999999999961 -0.4658440679978858 0 -0.4845964013740845 -0.4533699071458081 0 -0.5 -0.44767083444357098 0 -0.49007571233826341 -0.43447092856100877 0 -0.4845964013740845 -0.4533699071458081 0 -0.49007571233826341 -0.43447092856100877 0 -0.479559194399101 -0.43911436132366771 0 -0.4845964013740845 -0.4533699071458081 0 -0.49007571233826341 -0.43447092856100877 0 -0.49007571233826341 -0.43447092856100877 0 -0.49555502330244228 -0.41557194997620939 0 -0.48308720126212001 -0.42011479327980711 0 -0.5 -0.44767083444357098 0 -0.49007571233826341 -0.43447092856100877 0 -0.49999999999999872 -0.42949760088925609 0 -0.49007571233826341 -0.43447092856100877 0 -0.49555502330244228 -0.41557194997620939 0 -0.49007571233826341 -0.43447092856100877 0 -0.49999999999999872 -0.42949760088925609 0 -0.49555502330244228 -0.41557194997620939 0 -0.49999999999999872 -0.42949760088925609 0 -0.49555502330244228 -0.41557194997620939 0 -0.49999999999999872 -0.42949760088925609 0 -0.49555502330244228 -0.41557194997620939 0 -0.49999999999999939 -0.40024054791375741 0 -0.49555502330244228 -0.41557194997620939 0 -0.49999999999999939 -0.40024054791375741 0 -0.49555502330244228 -0.41557194997620939 0 -0.48308720126212001 -0.42011479327980711 0 -0.48017075690217048 -0.40704831406391989 0 -0.48308720126212001 -0.42011479327980711 0 -0.48017075690217048 -0.40704831406391989 0 -0.47201744484553931 -0.41636257052853781 0 -0.48017075690217048 -0.40704831406391989 0 -0.47201744484553931 -0.41636257052853781 0 -0.46594870531705618 -0.40470601036541087 0 -0.47201744484553931 -0.41636257052853781 0 -0.47627036511510928 -0.4292583120806267 0 -0.46476377415712161 -0.42459747985895602 0 -0.46729429876894762 -0.43935829750722738 0 -0.47627036511510928 -0.4292583120806267 0 -0.46476377415712161 -0.42459747985895602 0 -0.46729429876894762 -0.43935829750722738 0 -0.479559194399101 -0.43911436132366771 0 -0.47627036511510928 -0.4292583120806267 0 -0.479559194399101 -0.43911436132366771 0 -0.49007571233826341 -0.43447092856100877 0 -0.47627036511510928 -0.4292583120806267 0 -0.48308720126212001 -0.42011479327980711 0 -0.47201744484553931 -0.41636257052853781 0 -0.47627036511510928 -0.4292583120806267 0 -0.49007571233826341 -0.43447092856100877 0 -0.48308720126212001 -0.42011479327980711 0 -0.47627036511510928 -0.4292583120806267 0 -0.5 -0.37615469370796661 0 -0.48773470393351459 -0.39107170060030172 0 -0.47991438456458763 -0.36657145122439377 0 -0.5 -0.37615469370796661 0 -0.48773470393351459 -0.39107170060030172 0 -0.49999999999999939 -0.40024054791375741 0 -0.49555502330244228 -0.41557194997620939 0 -0.48773470393351459 -0.39107170060030172 0 -0.49999999999999939 -0.40024054791375741 0 -0.49555502330244228 -0.41557194997620939 0 -0.48017075690217048 -0.40704831406391989 0 -0.48773470393351459 -0.39107170060030172 0 -0.49555502330244228 -0.41557194997620939 0 -0.48773470393351459 -0.39107170060030172 0 -0.48017075690217048 -0.40704831406391989 0 -0.48773470393351459 -0.39107170060030172 0 -0.47401840227218323 -0.39565188186331768 0 -0.48017075690217048 -0.40704831406391989 0 -0.47401840227218323 -0.39565188186331768 0 -0.46594870531705618 -0.40470601036541087 0 -0.48773470393351459 -0.39107170060030172 0 -0.47991438456458763 -0.36657145122439377 0 -0.48773470393351459 -0.39107170060030172 0 -0.47373804209450332 -0.38204112143425978 0 -0.47991438456458763 -0.36657145122439377 0 -0.48773470393351459 -0.39107170060030172 0 -0.47401840227218323 -0.39565188186331768 0 -0.47373804209450332 -0.38204112143425978 0 -0.47401840227218323 -0.39565188186331768 0 -0.47373804209450332 -0.38204112143425978 0 -0.46148244580707071 -0.39332200182318527 0 -0.47373804209450332 -0.38204112143425978 0 -0.46148244580707071 -0.39332200182318527 0 -0.4476392293563643 -0.37371378910624697 0 -0.47401840227218323 -0.39565188186331768 0 -0.46148244580707071 -0.39332200182318527 0 -0.46594870531705618 -0.40470601036541087 0 -0.46148244580707071 -0.39332200182318527 0 -0.46594870531705618 -0.40470601036541087 0 -0.45305813841390569 -0.40313529865555842 0 -0.46148244580707071 -0.39332200182318527 0 -0.43895431240796029 -0.39330517679348681 0 -0.46148244580707071 -0.39332200182318527 0 -0.45305813841390569 -0.40313529865555842 0 -0.43895431240796029 -0.39330517679348681 0 -0.45305813841390569 -0.40313529865555842 0 -0.43895431240796029 -0.39330517679348681 0 -0.44289729498636332 -0.40986882980900641 0 -0.43895431240796029 -0.39330517679348681 0 -0.42963926502663552 -0.37909202820398707 0 -0.4476392293563643 -0.37371378910624697 0 -0.46148244580707071 -0.39332200182318527 0 -0.43895431240796029 -0.39330517679348681 0 -0.4476392293563643 -0.37371378910624697 0 -0.46729429876894762 -0.43935829750722738 0 -0.46476377415712161 -0.42459747985895602 0 -0.44999219616380981 -0.42534668786864788 0 -0.46033145833812372 -0.44240926889198129 0 -0.46729429876894762 -0.43935829750722738 0 -0.44999219616380981 -0.42534668786864788 0 -0.46729429876894762 -0.43935829750722738 0 -0.44999219616380981 -0.42534668786864788 0 -0.47201744484553931 -0.41636257052853781 0 -0.46476377415712161 -0.42459747985895602 0 -0.45600793355107772 -0.4144744744867026 0 -0.47201744484553931 -0.41636257052853781 0 -0.46594870531705618 -0.40470601036541087 0 -0.45600793355107772 -0.4144744744867026 0 -0.46594870531705618 -0.40470601036541087 0 -0.45305813841390569 -0.40313529865555842 0 -0.45600793355107772 -0.4144744744867026 0 -0.46476377415712161 -0.42459747985895602 
[...]
<PointData Scalars="" Vectors="displacement," Tensors="">
<DataArray type="Float64" Name="displacement" NumberOfComponents="3" format="ascii">
-1.0127519564019983e-06 -0.034997876833728951 0 -0.00013616955962238495 -0.034696133790477118 0 1.8495416864458636e-07 -0.03500014311597386 0 -1.0127519564019983e-06 -0.034997876833728951 0 -7.9330874623836274e-05 -0.034089773159302596 0 -0.00013616955962238495 -0.034696133790477118 0 -1.0127519564019983e-06 -0.034997876833728951 0 -7.9330874623836274e-05 -0.034089773159302596 0 1.660681502243637e-06 -0.03297254204048642 0 -7.9330874623836274e-05 -0.034089773159302596 0 1.660681502243637e-06 -0.03297254204048642 0 0.0010503712692152868 -0.034452081947946842 0 -7.9330874623836274e-05 -0.034089773159302596 0 -0.00013616955962238495 -0.034696133790477118 0 0.0010503712692152868 -0.034452081947946842 0 -8.5057336597010599e-08 -0.034999967179441614 0 -0.00016528158931262968 -0.034925777201894583 0 -0.00013616955962238495 -0.034696133790477118 0 1.8495416864458636e-07 -0.03500014311597386 0 -0.00013939473504666168 -0.034797071113640957 0 -0.00013616955962238495 -0.034696133790477118 0 -0.00013939473504666168 -0.034797071113640957 0 -0.00018943596938117535 -0.034796705376088068 0 -0.00018299381715007693 -0.035048219030157673 0 -9.7513567989070327e-05 -0.03500576638552047 0 -0.000199909427765066 -0.034993322325134336 0 -6.1558530150335383e-08 -0.03500018990744181 0 -0.00018299381715007693 -0.035048219030157673 0 -9.7513567989070327e-05 -0.03500576638552047 0 -6.1558530150335383e-08 -0.03500018990744181 0 -9.7513567989070327e-05 -0.03500576638552047 0 -9.6667643070531392e-08 -0.034999959525454746 0 -0.00027282202313453632 -0.034894741276912368 0 -0.00032195236813898492 -0.034936097594963453 0 -0.00023839106136467106 -0.034839644316495756 0 -0.00027282202313453632 -0.034894741276912368 0 -0.00032195236813898492 -0.034936097594963453 0 -0.00029459646151873268 -0.034943323097741827 0 -0.00032195236813898492 -0.034936097594963453 0 -0.00029459646151873268 -0.034943323097741827 0 -0.00033531457411148044 -0.034968084484663299 0 -0.00029459646151873268 -0.034943323097741827 0 -0.00027139706716788913 -0.034972250069888848 0 -0.00033531457411148044 -0.034968084484663299 0 -0.00027282202313453632 -0.034894741276912368 0 -0.00029459646151873268 -0.034943323097741827 0 -0.00027139706716788913 -0.034972250069888848 0 -0.00016528158931262968 -0.034925777201894583 0 -0.00024925273470306666 -0.034899093191118662 0 -0.00018299381715007693 -0.035048219030157673 0 -0.00027282202313453632 -0.034894741276912368 0 -0.00027139706716788913 -0.034972250069888848 0 -0.00018299381715007693 -0.035048219030157673 0 -0.00027139706716788913 -0.034972250069888848 0 -0.000199909427765066 -0.034993322325134336 0 -0.00013939473504666168 -0.034797071113640957 0 -0.00027282202313453632 -0.034894741276912368 0 -0.00022706143243947339 -0.034839153584024965 0 -0.00013939473504666168 -0.034797071113640957 0 -0.00018943596938117535 -0.034796705376088068 0 -0.00022706143243947339 -0.034839153584024965 0 -0.00018943596938117535 -0.034796705376088068 0 -0.00022706143243947339 -0.034839153584024965 0 -0.00023839106136467106 -0.034839644316495756 0 -0.00027282202313453632 -0.034894741276912368 0 -0.00022706143243947339 -0.034839153584024965 0 -0.00023839106136467106 -0.034839644316495756 0 0.0009001865710834792 -0.022745650680652995 0 0.0022432708332978876 -0.023966569732891858 0 0.0018587248447390751 -0.024074576679154205 0 0.001081383366702524 -0.022319793497450204 0 0.0009001865710834792 -0.022745650680652995 0 0.0022432708332978876 -0.023966569732891858 0 0.00046345189158286838 -0.021497460776629829 0 0.00066363815717046201 -0.027670089213645308 0 0.00043063845713319816 -0.028383791375096924 0 0.0006862486550324523 -0.0306385497965069 0 0.0004934075884441329 -0.021666241193389866 0 0.00051869178634020557 -0.0216761690258323 0 0.00053094867896804471 -0.02171384321755138 0 -0.00045355740778844423 -0.035232698097155651 0 0.0006862486550324523 -0.0306385497965069 0 -0.00013616955962238495 -0.034696133790477118 0 -0.00018943596938117535 -0.034796705376088068 0 -0.00016751061627517239 -0.03473983133583091 0 -0.00018943596938117535 -0.034796705376088068 0 -0.00023839106136467106 -0.034839644316495756 0 -0.00016751061627517239 -0.03473983133583091 0 0.0006862486550324523 -0.0306385497965069 0 0.00066363815717046201 -0.027670089213645308 0 2.6602578150474032e-07 -0.032964999841583471 0 -0.00010137284357756196 -0.03202511638339052 0 -2.5984183659787219e-07 -0.032612432615593073 0 -0.00010137284357756196 -0.03202511638339052 0 -0.00026299690595000641 -0.032063768382947493 0 -2.5984183659787219e-07 -0.032612432615593073 0 1.1249861987472503e-06 -0.032970400258676577 0 0.0006862486550324523 -0.0306385497965069 0 4.1309608220782821e-05 -0.031253203980527999 0 7.208159132694529e-07 -0.032607269274719367 0 -6.8545552477664627e-07 -0.031337077534005789 0 0.00066363815717046201 -0.027670089213645308 0 1.3310523249565411e-06 -0.032611090158989442 0 4.1309608220782821e-05 -0.031253203980527999 0 -6.8545552477664627e-07 -0.031337077534005789 0 -0.00013786534505144852 -0.03077374477018761 0 0.00066363815717046201 -0.027670089213645308 0 0.00028352479548416558 -0.026122791791205892 0 0.00051869178634020557 -0.0216761690258323 0 0.00053094867896804471 -0.02171384321755138 0 0.00053002037613525453 -0.021674469020863941 0 0.00053002037613525453 -0.021674469020863941 0 0.00058123028443690542 -0.021680843830128364 0 0.00056635845884154938 -0.02164875675102983 0 -6.8545552477664627e-07 -0.031337077534005789 0 -0.00013786534505144852 -0.03077374477018761 0 6.6125138845364605e-07 -0.030066313323408179 0 0.00028352479548416558 -0.026122791791205892 0 0.0003940571950175252 -0.027323683004130014 0 -0.00013786534505144852 -0.03077374477018761 0 6.6125138845364605e-07 -0.030066313323408179 0 0.00082435798276652176 -0.030292782532625056 0 5.5534164438317693e-07 -0.030064199905462892 0 0.0003940571950175252 -0.027323683004130014 0 3.6097016859296298e-09 -0.030063894494816796 0 4.7373579406550756e-07 -0.029087914566869974 0 1.0548415837744668e-09 -0.02801776618639782 0 0.0003940571950175252 -0.027323683004130014 0 -2.8824567941953341e-07 -0.028017173348471695 0 0.00058123028443690542 -0.021680843830128364 0 0.00056635845884154938 -0.02164875675102983 0 0.00057829482082446192 -0.021618665494635786 0 0.00056635845884154938 -0.02164875675102983 0 0.00057829482082446192 -0.021618665494635786 0 0.00057289886436624824 -0.021610564343020923 0 0.00057829482082446192 -0.021618665494635786 0 0.00057289886436624824 -0.021610564343020923 0 0.00059613239554509492 -0.021514360385211029 0 0.00057289886436624824 -0.021610564343020923 0 0.00053543626243060278 -0.021655253645163158 0 0.0005394429042386294 -0.021671119499602393 0 0.0004934075884441329 -0.021666241193389866 0 0.00053543626243060278 -0.021655253645163158 0 0.0005394429042386294 -0.021671119499602393 0 0.0004934075884441329 -0.021666241193389866 0 0.00051869178634020557 -0.0216761690258323 0 0.00053543626243060278 -0.021655253645163158 0 0.00051869178634020557 -0.0216761690258323 0 0.00053002037613525453 -0.021674469020863941 0 0.00053543626243060278 -0.021655253645163158 0 0.00056635845884154938 -0.02164875675102983 0 0.00057289886436624824 -0.021610564343020923 0 0.00053543626243060278 -0.021655253645163158 0 0.00053002037613525453 -0.021674469020863941 0 0.00056635845884154938 -0.02164875675102983 0 0.00053543626243060278 -0.021655253645163158 0 -5.0340487162968038e-07 -0.026330620804139258 0 -6.4893100496117142e-05 -0.026754104605974112 0 6.8940555748201894e-06 -0.0250048403367641 0 -5.0340487162968038e-07 -0.026330620804139258 0 -6.4893100496117142e-05 -0.026754104605974112 0 1.4038174084569847e-06 -0.028014459023063321 0 0.00083935969560810088 -0.027856337572907001 0 -6.4893100496117142e-05 -0.026754104605974112 0 1.4038174084569847e-06 -0.028014459023063321 0 0.00058123028443690542 -0.021680843830128364 0 0.00057829482082446192 -0.021618665494635786 0 0.00049172421930115799 -0.021714291228005052 0 0.0003940571950175252 -0.027323683004130014 0 0.00014937588682086675 -0.023867898259098796 0 0.00057829482082446192 -0.021618665494635786 0 0.00049172421930115799 -0.021714291228005052 0 0.00054867028021151525 -0.021535846269554675 0 0.00057829482082446192 -0.021618665494635786 0 0.00054867028021151525 -0.021535846269554675 0 0.00059613239554509492 -0.021514360385211029 0 0.00014937588682086675 -0.023867898259098796 0 -9.2393322265620393e-05 -0.023311027324285416 0 0.00049172421930115799 -0.021714291228005052 0 0.0003118345931821921 -0.021492730895413686 0 -5.5328229966525372e-05 -0.021577058262169123 0 0.00049172421930115799 -0.021714291228005052 0 0.00054867028021151525 -0.021535846269554675 0 0.0003118345931821921 -0.021492730895413686 0 0.00054867028021151525 -0.021535846269554675 0 0.0003118345931821921 -0.021492730895413686 0 0.00060336932453280631 -0.021309166685923184 0 0.0003118345931821921 -0.021492730895413686 0 0.00060336932453280631 -0.021309166685923184 0 2.1835302932813742e-05 -0.020618585218077547 0 0.00054867028021151525 -0.021535846269554675 0 0.00060336932453280631 -0.021309166685923184 0 0.00059613239554509492 -0.021514360385211029 0 0.00060336932453280631 -0.021309166685923184 0 0.00059613239554509492 -0.021514360385211029 0 0.0005899335664985699 -0.02155941681337073 0 0.00061687729237879115 -0.021286680013912818 0 0.00062908917678153483 -0.021143509442436127 0 0.00060336932453280631 -0.021309166685923184 0 0.0005899335664985699 -0.02155941681337073 0 0.00080414861525514758 -0.021782973643033256 0 0.0005899335664985699 -0.02155941681337073 0 0.00080414861525514758 -0.021782973643033256 0 0.0005468707595959626 -0.021741221018105786 0 0.00049345261233195805 -0.020353341258341415 0 8.2102031926646989e-05 -0.020093373809322856 0 2.1835302932813742e-05 -0.020618585218077547 0 0.00060336932453280631 -0.021309166685923184 0 0.00049345261233195805 -0.020353341258341415 0 2.1835302932813742e-05 -0.020618585218077547 0 0.0004934075884441329 -0.021666241193389866 0 0.0005394429042386294 -0.021671119499602393 0 0.00049853004051788068 -0.021867883483204339 0 0.001081383366702524 -0.022319793497450204 0 0.0009001865710834792 -0.022745650680652995 0 0.00049853004051788068 -0.021867883483204339 0 0.00046345189158286838 -0.021497460776629829 0 0.00066498859025413293 -0.022158788688513713 0 0.00057289886436624824 -0.021610564343020923 0 0.0005394429042386294 -0.021671119499602393 0 0.00055099582735420888 -0.021659462691047307 0 0.00057289886436624824 -0.021610564343020923 0 0.00059613239554509492 -0.021514360385211029 0 0.00055099582735420888 -0.021659462691047307 0 0.00059613239554509492 -0.021514360385211029 0 0.0005899335664985699 -0.02155941681337073 0 0.00055099582735420888 -0.021659462691047307 0 0.0005394429042386294 -0.021671119499602393 0 0.00055099582735420888 -0.021659462691047307 0 0.00049853004051788068 -0.021867883483204339 0 0.00055099582735420888 -0.021659462691047307 0 0.00049229312245154531 -0.02177017795067002 0 0.0005468707595959626 -0.021741221018105786 0 0.00055099582735420888 -0.021659462691047307 0 0.00049229312245154531 -0.02177017795067002 0 0.00049853004051788068 -0.021867883483204339 0 0.00049229312245154531 -0.02177017795067002 0 0.0005468707595959626 -0.021741221018105786 0 0.0004384291345750674 -0.021710051770604012 0 0.0005899335664985699 -0.02155941681337073 0 0.00055099582735420888 -0.021659462691047307 0 0.0005468707595959626 -0.021741221018105786 0 0.00043063845713319816 -0.028383791375096924 0 -2.3944092530779422e-05 -0.028250954955471145 0 -0.00032195236813898492 -0.034936097594963453 0 -0.00023839106136467106 -0.034839644316495756 0 -0.00039837906247917654 -0.034953839205135187 0 0.00049229312245154531 -0.02177017795067002 0 0.0004384291345750674 -0.021710051770604012 0 0.00049853004051788068 -0.021867883483204339 0 0.001081383366702524 -0.022319793497450204 0 0.0004384291345750674 -0.021710051770604012 0 0.00049853004051788068 -0.021867883483204339 0 -0.00039837906247917654 -0.034953839205135187 0 -0.00037487191536144369 -0.034956605812138504 0 -0.00043638229801015662 -0.034953955809532172 0 -0.00039837906247917654 -0.034953839205135187 0 -0.00043638229801015662 -0.034953955809532172 0 -0.0005033778452823072 -0.034941924777030585 0 -0.00032195236813898492 -0.034936097594963453 0 -0.00039837906247917654 -0.034953839205135187 0 -0.00037487191536144369 -0.034956605812138504 0 -0.00037487191536144369 -0.034956605812138504 0 -0.00043638229801015662 -0.034953955809532172 0 -0.00033531457411148044 -0.034968084484663299 0 -0.00039837906247917654 -0.034953839205135187 0 -0.00061190603212090495 -0.034927128252875396 0 -0.0005033778452823072 -0.034941924777030585 0 0.0004384291345750674 -0.021710051770604012 0 0.0006119853389958467 -0.021926719457446998 0 0.00053254698066655779 -0.022252526573212351 0 0.0005468707595959626 -0.021741221018105786 0 0.0004384291345750674 -0.021710051770604012 0 0.0006119853389958467 -0.021926719457446998 0 -2.3944092530779422e-05 -0.028250954955471145 0 0.00015888020121911315 -0.029247568975195332 0 -0.00061190603212090495 -0.034927128252875396 0 -0.0005635319633031235 -0.034923255000320466 0 -0.0006427583112010518 -0.03489534209592126 0 -0.00061190603212090495 -0.034927128252875396 0 -0.0005033778452823072 -0.034941924777030585 0 -0.0005635319633031235 -0.034923255000320466 0 -0.0004746716476662123 -0.034947563867384408 0 -0.0005033778452823072 -0.034941924777030585 0 -0.0005635319633031235 -0.034923255000320466 0 -0.0004746716476662123 -0.034947563867384408 0 -0.00043638229801015662 -0.034953955809532172 0 -0.00037075610077725966 -0.03496956921405512 0 -0.0004746716476662123 -0.034947563867384408 0 -0.00043638229801015662 -0.034953955809532172 0 -0.0005033778452823072 -0.034941924777030585 0 0.00049345261233195805 -0.020353341258341415 0 8.2102031926646989e-05 -0.020093373809322856 0 0.00029352315106534016 -0.020069283375803285 0 8.2102031926646989e-05 -0.020093373809322856 0 0.00029352315106534016 -0.020069283375803285 0 1.3053675636823268e-05 -0.019873147344015414 0 0.00049345261233195805 -0.020353341258341415 0 0.00029352315106534016 -0.020069283375803285 0 0.00023095661307697649 -0.01988996670438371 0 0.00080414861525514758 -0.021782973643033256 0 0.0006119853389958467 -0.021926719457446998 0 0.00088177313118552249 -0.022210092186706262 0 0.00062908917678153483 -0.021143509442436127 0 0.0005936824455713178 -0.020858158086780276 0 0.00080414861525514758 -0.021782973643033256 0 0.0005468707595959626 -0.021741221018105786 0 0.0006119853389958467 -0.021926719457446998 0 0.000201094089038514 -0.020163926315767342 0 9.8111957897459794e-05 -0.019434449906125865 0 0.00029352315106534016 -0.020069283375803285 0 0.00023095661307697649 -0.01988996670438371 0 0.00016663407434322968 -0.019790097898259456 0 0.00053254698066655779 -0.022252526573212351 0 0.00088177313118552249 -0.022210092186706262 0 0.00087627093008493112 -0.022779265016047819 0 0.0006119853389958467 -0.021926719457446998 0 0.00053254698066655779 -0.022252526573212351 0 0.00088177313118552249 -0.022210092186706262 0 0.00023095661307697649 -0.01988996670438371 0 0.00016663407434322968 -0.019790097898259456 0 5.7372866009708713e-05 -0.019557331833918647 0 0.00029352315106534016 -0.020069283375803285 0 -2.7973567745722846e-05 -0.01980540106171038 0 1.3053675636823268e-05 -0.019873147344015414 0 -2.7973567745722846e-05 -0.01980540106171038 0 1.3053675636823268e-05 -0.019873147344015414 0 -0.00017084372173941601 -0.019787302001438471 0 1.3053675636823268e-05 -0.019873147344015414 0 -0.00017084372173941601 -0.019787302001438471 0 -7.4166125664266449e-05 -0.019818989267443909 0 8.2102031926646989e-05 -0.020093373809322856 0 1.3053675636823268e-05 -0.019873147344015414 0 -7.4166125664266449e-05 -0.019818989267443909 0 -0.00017084372173941601 -0.019787302001438471 0 -0.00030585709165869033 -0.019916203282201544 0 -8.7410168663790974e-05 -0.019678576349379629 0 -0.00017084372173941601 -0.019787302001438471 0 -0.00033639553671995604 -0.019896590338191859 0 -0.00030585709165869033 -0.019916203282201544 0 -2.7973567745722846e-05 -0.01980540106171038 0 -0.00017084372173941601 -0.019787302001438471 0 -0.00022570791460454703 -0.019828659142683953 0 -0.00022570791460454703 -0.019828659142683953 0 -0.00033639553671995604 -0.019896590338191859 0 -0.00034219484084764307 -0.01986634186067416 0 -0.00017084372173941601 -0.019787302001438471 0 -0.00022570791460454703 -0.019828659142683953 0 -0.00033639553671995604 -0.019896590338191859 0 0.00053254698066655779 -0.022252526573212351 0 0.00087627093008493112 -0.022779265016047819 0 0.00087227004005603918 -0.02282401485236301 0 -2.7973567745722846e-05 -0.01980540106171038 0 -0.00022570791460454703 -0.019828659142683953 0 -0.00034219484084764307 -0.01986634186067416 0 0.0005936824455713178 -0.020858158086780276 0 1.6603561374433487e-05 -0.022182923595149052 0 -0.00061190603212090495 -0.034927128252875396 0 -0.00075616407169583702 -0.034830846032755269 0 -0.00070694764816366378 -0.034865515444349439 0 9.8111957897459794e-05 -0.019434449906125865 0 1.6603561374433487e-05 -0.022182923595149052 0 0.00015888020121911315 -0.029247568975195332 0 -0.000180442181438951 -0.025431829761081683 0 -0.00033639553671995604 -0.019896590338191859 0 -0.00034219484084764307 -0.01986634186067416 0 -0.0003656945900690551 -0.019883865300210978 0 1.6603561374433487e-05 -0.022182923595149052 0 -0.000180442181438951 -0.025431829761081683 0 -0.00075616407169583702 -0.034830846032755269 0 -0.00070694764816366378 -0.034865515444349439 0 -0.00074021034023723199 -0.034849184439688256 0 -0.00070694764816366378 -0.034865515444349439 0 -0.00073840396525427668 -0.034856740567389945 0 -0.00069862876528305727 -0.034879023116290694 0 -0.00070694764816366378 -0.034865515444349439 0 -0.00074021034023723199 -0.034849184439688256 0 -0.00073840396525427668 -0.034856740567389945 0 -0.000180442181438951 -0.025431829761081683 0 -0.0012094905212321344 -0.023503583847847793 0 -0.000180442181438951 -0.025431829761081683 0 -0.0012368301510195456 -0.032408747037856366 0 -0.00075616407169583702 -0.034830846032755269 0 -0.00077700985314263244 -0.034848144047001248 0 -0.00080979287763533879 -0.03485073327878202 0 -0.00075616407169583702 -0.034830846032755269 0 -0.00080979287763533879 -0.03485073327878202 0 -0.00085715118395537264 -0.034853307009695245 0 -0.00073840396525427668 -0.034856740567389945 0 -0.00074121784012187199 -0.034867492314770682 0 -0.00069862876528305727 -0.034879023116290694 0 -0.00074021034023723199 -0.034849184439688256 0 -0.00073840396525427668 -0.034856740567389945 0 -0.00075864580122745457 -0.034843827502250978 0 -0.00073840396525427668 -0.034856740567389945 0 -0.00075817672099512661 -0.034850924579278041 0 -0.00075864580122745457 -0.034843827502250978 0 -0.00075817672099512661 -0.034850924579278041 0 -0.00077700985314263244 -0.034848144047001248 0 -0.00075864580122745457 -0.034843827502250978 0 -0.00073840396525427668 -0.034856740567389945 0 -0.00075817672099512661 -0.034850924579278041 0 -0.00075806531723317402 -0.034855639047783146 0 -0.00075817672099512661 -0.034850924579278041 0 -0.00075806531723317402 -0.034855639047783146 0 -0.00077700985314263244 -0.034848144047001248 0 -0.00075806531723317402 -0.034855639047783146 0 -0.00074121784012187199 -0.034867492314770682 0 -0.00077312487666954287 -0.034856722229033417 0 -0.00073840396525427668 -0.034856740567389945 0 -0.00075806531723317402 -0.034855639047783146 0 -0.00074121784012187199 -0.034867492314770682 0 -0.00074121784012187199 -0.034867492314770682 0 -0.00076988165618303156 -0.034865785931215004 0 -0.00077312487666954287 -0.034856722229033417 0 -0.00076988165618303156 -0.034865785931215004 0 -0.00079073561218392528 -0.034857165610157233 0 -0.00077312487666954287 -0.034856722229033417 0 -0.00076988165618303156 -0.034865785931215004 0 -0.00079073561218392528 -0.034857165610157233 0 -0.00080229352386433791 -0.034860598650787465 0 -0.00079073561218392