<?xml version="1.0"?>
<VTKFile type="UnstructuredGrid" version="0.1" byte_order="LittleEndian">
<UnstructuredGrid>
<Piece NumberOfPoints="31654" NumberOfCells="11089">
<Points>
<DataArray type="Float64" NumberOfComponents="3" format="ascii">
-0.5 -0.5 0 -0.4732451585137879 -0.47682807702931651 0 -0.49999999999999589 -0.46823444459058577 0 -0.5 -0.5 0 -0.4732451585137879 -0.47682807702931651 0 -0.43874771323925571 -0.500000000000001 0 -0.4732451585137879 -0.47682807702931651 0 -0.44886940929137248 -0.47646658065203418 0 -0.43874771323925571 -0.500000000000001 0 -0.4732451585137879 -0.47682807702931651 0 -0.44886940929137248 -0.47646658065203418 0 -0.46314426659889912 -0.46019175248200039 0 -0.44886940929137248 -0.47646658065203418 0 -0.4289222659274402 -0.48282780253622748 0 -0.43509480535000561 -0.4590958846834251 0 -0.44886940929137248 -0.47646658065203418 0 -0.43874771323925571 -0.500000000000001 0 -0.43459455198384589 -0.49274140882206791 0 -0.44886940929137248 -0.47646658065203418 0 -0.43459455198384589 -0.49274140882206791 0 -0.44126734477257151 -0.43536396683062278 0 -0.43509480535000561 -0.4590958846834251 0 -0.45635136321272551 -0.44412501524972731 0 -0.44126734477257151 -0.43536396683062278 0 -0.43509480535000561 -0.4590958846834251 0 -0.44886940929137248 -0.47646658065203418 0 -0.46314426659889912 -0.46019175248200039 0 -0.43509480535000561 -0.4590958846834251 0 -0.46314426659889912 -0.46019175248200039 0 -0.45635136321272551 -0.44412501524972731 0 -0.43509480535000561 -0.4590958846834251 0 -0.44886940929137248 -0.47646658065203418 0 -0.46314426659889912 -0.46019175248200039 0 -0.46314426659889912 -0.46019175248200039 0 -0.45635136321272551 -0.44412501524972731 0 -0.47741912390642088 -0.44391692431196261 0 -0.45635136321272551 -0.44412501524972731 0 -0.47741912390642088 -0.44391692431196261 0 -0.46242950405078193 -0.42777448664489159 0 -0.46314426659889912 -0.46019175248200039 0 -0.47741912390642088 -0.44391692431196261 0 -0.47741912390642088 -0.44391692431196261 0 -0.48870956195320708 -0.45607568445127539 0 -0.47741912390642088 -0.44391692431196261 0 -0.48846863947279479 -0.4313193225755223 0 -0.46314426659889912 -0.46019175248200039 0 -0.47741912390642088 -0.44391692431196261 0 -0.48870956195320708 -0.45607568445127539 0 -0.4732451585137879 -0.47682807702931651 0 -0.46314426659889912 -0.46019175248200039 0 -0.48870956195320708 -0.45607568445127539 0 -0.4732451585137879 -0.47682807702931651 0 -0.48870956195320708 -0.45607568445127539 0 -0.49999999999999589 -0.46823444459058577 0 -0.48870956195320708 -0.45607568445127539 0 -0.49999999999999589 -0.46823444459058577 0 -0.5 -0.44320340592566271 0 -0.48870956195320708 -0.45607568445127539 0 -0.49999999999999589 -0.46823444459058577 0 -0.47741912390642088 -0.44391692431196261 0 -0.48937206834784253 -0.44495466013401358 0 -0.49049276831072891 -0.43535915194495772 0 -0.47741912390642088 -0.44391692431196261 0 -0.48870956195320708 -0.45607568445127539 0 -0.48937206834784253 -0.44495466013401358 0 -0.48870956195320708 -0.45607568445127539 0 -0.48937206834784253 -0.44495466013401358 0 -0.5 -0.44320340592566271 0 -0.48937206834784253 -0.44495466013401358 0 -0.5 -0.44320340592566271 0 -0.49049276831072891 -0.43535915194495772 0 -0.49049276831072891 -0.43535915194495772 0 -0.48846863947279479 -0.4313193225755223 0 -0.50000000000000022 -0.41817236726073959 0 -0.5 -0.44320340592566271 0 -0.49049276831072891 -0.43535915194495772 0 -0.50000000000000022 -0.41817236726073959 0 -0.47741912390642088 -0.44391692431196261 0 -0.49049276831072891 -0.43535915194495772 0 -0.48846863947279479 -0.4313193225755223 0 -0.49049276831072891 -0.43535915194495772 0 -0.48846863947279479 -0.4313193225755223 0 -0.48846863947279479 -0.4313193225755223 0 -0.50000000000000022 -0.41817236726073959 0 -0.48846863947279479 -0.4313193225755223 0 -0.50000000000000022 -0.41817236726073959 0 -0.47669969369162829 -0.4078304359379693 0 -0.48846863947279479 -0.4313193225755223 0 -0.47669969369162829 -0.4078304359379693 0 -0.47741912390642088 -0.44391692431196261 0 -0.48846863947279479 -0.4313193225755223 0 -0.46242950405078193 -0.42777448664489159 0 -0.47741912390642088 -0.44391692431196261 0 -0.46242950405078193 -0.42777448664489159 0 -0.48846863947279479 -0.4313193225755223 0 -0.47669969369162829 -0.4078304359379693 0 -0.46242950405078193 -0.42777448664489159 0 -0.47669969369162829 -0.4078304359379693 0 -0.5 -0.38868731074238871 0 -0.48375721562598878 -0.37608957771036389 0 -0.47669969369162829 -0.4078304359379693 0 -0.48375721562598878 -0.37608957771036389 0 -0.46493074791046218 -0.38434154930041609 0 -0.50000000000000022 -0.41817236726073959 0 -0.47669969369162829 -0.4078304359379693 0 -0.5 -0.38868731074238871 0 -0.47669969369162829 -0.4078304359379693 0 -0.46493074791046218 -0.38434154930041609 0 -0.46493074791046218 -0.38434154930041609 0 -0.44555067367400492 -0.38224222509260541 0 -0.45316180212929608 -0.36085266266286281 0 -0.46493074791046218 -0.38434154930041609 0 -0.44915309548591592 -0.40504516684814063 0 -0.44555067367400492 -0.38224222509260541 0 -0.47669969369162829 -0.4078304359379693 0 -0.46493074791046218 -0.38434154930041609 0 -0.46122462095373062 -0.40961346283075728 0 -0.46493074791046218 -0.38434154930041609 0 -0.44915309548591592 -0.40504516684814063 0 -0.46122462095373062 -0.40961346283075728 0 -0.44743988419514152 -0.41163204897782169 0 -0.42940116786533511 -0.39220601571264879 0 -0.44915309548591592 -0.40504516684814063 0 -0.44555067367400492 -0.38224222509260541 0 -0.42940116786533511 -0.39220601571264879 0 -0.44743988419514152 -0.41163204897782169 0 -0.44015200157501472 -0.411277631760887 0 -0.42940116786533511 -0.39220601571264879 0 -0.44915309548591592 -0.40504516684814063 0 -0.44743988419514152 -0.41163204897782169 0 -0.42940116786533511 -0.39220601571264879 0 -0.45635136321272551 -0.44412501524972731 0 -0.46242950405078193 -0.42777448664489159 0 -0.44126734477257151 -0.43536396683062278 0 -0.46242950405078193 -0.42777448664489159 0 -0.44743988419514152 -0.41163204897782169 0 -0.46242950405078193 -0.42777448664489159 0 -0.46122462095373062 -0.40961346283075728 0 -0.44743988419514152 -0.41163204897782169 0 -0.47669969369162829 -0.4078304359379693 0 -0.46242950405078193 -0.42777448664489159 0 -0.46122462095373062 -0.40961346283075728 0 -0.44915309548591592 -0.40504516684814063 0 -0.46122462095373062 -0.40961346283075728 0 -0.44743988419514152 -0.41163204897782169 0 -0.44915309548591592 -0.40504516684814063 0 -0.44743988419514152 -0.41163204897782169 0 -0.44743988419514152 -0.41163204897782169 0 -0.44015200157501472 -0.411277631760887 0 -0.43582053511234642 -0.42354719600006779 0 -0.44743988419514152 -0.41163204897782169 0 -0.44126734477257151 -0.43536396683062278 0 -0.46242950405078193 -0.42777448664489159 0 -0.44743988419514152 -0.41163204897782169 0 -0.44126734477257151 -0.43536396683062278 0 -0.44743988419514152 -0.41163204897782169 0 -0.44126734477257151 -0.43536396683062278 0 -0.43582053511234642 -0.42354719600006779 0 -0.43582053511234642 -0.42354719600006779 0 -0.42342116587033379 -0.41960264903789002 0 -0.42488767794464982 -0.43823262806029611 0 -0.44126734477257151 -0.43536396683062278 0 -0.43582053511234642 -0.42354719600006779 0 -0.42488767794464982 -0.43823262806029611 0 -0.43582053511234642 -0.42354719600006779 0 -0.43075900464505068 -0.41614169475609569 0 -0.42342116587033379 -0.41960264903789002 0 -0.44015200157501472 -0.411277631760887 0 -0.42440039228766119 -0.41109654959367481 0 -0.42086078397803039 -0.40109126819785068 0 -0.44015200157501472 -0.411277631760887 0 -0.43075900464505068 -0.41614169475609569 0 -0.42440039228766119 -0.41109654959367481 0 -0.44015200157501472 -0.411277631760887 0 -0.43582053511234642 -0.42354719600006779 0 -0.43075900464505068 -0.41614169475609569 0 -0.43075900464505068 -0.41614169475609569 0 -0.42440039228766119 -0.41109654959367481 0 -0.42342116587033379 -0.41960264903789002 0 -0.42342116587033379 -0.41960264903789002 0 -0.4104477714426118 -0.4119642915827062 0 -0.41188317545024239 -0.42436285658791062 0 -0.42440039228766119 -0.41109654959367481 0 -0.42342116587033379 -0.41960264903789002 0 -0.4104477714426118 -0.4119642915827062 0 -0.42440039228766119 -0.41109654959367481 0 -0.4104477714426118 -0.4119642915827062 0 -0.42086078397803039 -0.40109126819785068 0 -0.4104477714426118 -0.4119642915827062 0 -0.41188317545024239 -0.42436285658791062 0 -0.39970241496547171 -0.42327770595292158 0 -0.41188317545024239 -0.42436285658791062 0 -0.40831074892188329 -0.43632206089057513 0 -0.39970241496547171 -0.42327770595292158 0 -0.41188317545024239 -0.42436285658791062 0 -0.40831074892188329 -0.43632206089057513 0 -0.42488767794464982 -0.43823262806029611 0 -0.42342116587033379 -0.41960264903789002 0 -0.41188317545024239 -0.42436285658791062 0 -0.42488767794464982 -0.43823262806029611 0 -0.42940116786533511 -0.39220601571264879 0 -0.43110655497901512 -0.36876573093895848 0 -0.4113624515355272 -0.37277998244747762 0 -0.44555067367400492 -0.38224222509260541 0 -0.42940116786533511 -0.39220601571264879 0 -0.43110655497901512 -0.36876573093895848 0 -0.44015200157501472 -0.411277631760887 0 -0.42086078397803039 -0.40109126819785068 0 -0.44015200157501472 -0.411277631760887 0 -0.42940116786533511 -0.39220601571264879 0 -0.42086078397803039 -0.40109126819785068 0 -0.42940116786533511 -0.39220601571264879 0 -0.42086078397803039 -0.40109126819785068 0 -0.41579849243998468 -0.38924554274819789 0 -0.42086078397803039 -0.40109126819785068 0 -0.40156956638104607 -0.39090490463481442 0 -0.4104477714426118 -0.4119642915827062 0 -0.42086078397803039 -0.40109126819785068 0 -0.40156956638104607 -0.39090490463481442 0 -0.42086078397803039 -0.40109126819785068 0 -0.41579849243998468 -0.38924554274819789 0 -0.40156956638104607 -0.39090490463481442 0 -0.42940116786533511 -0.39220601571264879 0 -0.41579849243998468 -0.38924554274819789 0 -0.4113624515355272 -0.37277998244747762 0 -0.41579849243998468 -0.38924554274819789 0 -0.40156956638104607 -0.390904904634
[...]
<PointData Scalars="" Vectors="displacement," Tensors="">
<DataArray type="Float64" Name="displacement" NumberOfComponents="3" format="ascii">
0.034995928304120814 0.034998689657662958 0 0.03462138025305856 0.033571518207667975 0 0.032785347368909534 0.034998339118734623 0 0.034995928304120814 0.034998689657662958 0 0.03462138025305856 0.033571518207667975 0 0.03499915687587641 0.03071664247480338 0 0.03462138025305856 0.033571518207667975 0 0.035097627585672003 0.031992095515080907 0 0.03499915687587641 0.03071664247480338 0 0.03462138025305856 0.033571518207667975 0 0.035097627585672003 0.031992095515080907 0 0.035067394615822083 0.033153772139134487 0 0.03461801270337167 0.032728546414215576 0 0.034687350772499709 0.032895068003149334 0 0.034453518391677922 0.032864098643893544 0 0.035097627585672003 0.031992095515080907 0 0.03499915687587641 0.03071664247480338 0 0.035079195266625209 0.030826183544597468 0 0.034811530921944007 0.032380304077898332 0 0.035023369614284483 0.031309842749116266 0 0.035968024554748394 0.03025798411425247 0 0.035784833173046163 0.030772550631454565 0 0.034285584452963168 0.032683259762626614 0 0.034200124321817009 0.032833207205552495 0 0.034453518391677922 0.032864098643893544 0 0.03461801270337167 0.032728546414215576 0 0.034448830673762677 0.032612588368010578 0 0.034453518391677922 0.032864098643893544 0 0.034448830673762677 0.032612588368010578 0 0.034285584452963168 0.032683259762626614 0 0.034453518391677922 0.032864098643893544 0 0.034811530921944007 0.032380304077898332 0 0.034899844719886768 0.032762127802675921 0 0.034448830673762677 0.032612588368010578 0 0.034285584452963168 0.032683259762626614 0 0.0342722931779081 0.032490247458506857 0 0.034285584452963168 0.032683259762626614 0 0.0342722931779081 0.032490247458506857 0 0.034105365830640749 0.032632433997858708 0 0.034899844719886768 0.032762127802675921 0 0.033016539499267451 0.034510200200340617 0 0.033016539499267451 0.034510200200340617 0 0.033169552013578553 0.034987547979551392 0 0.033016539499267451 0.034510200200340617 0 0.030337168682859288 0.035532823695043562 0 0.035067394615822083 0.033153772139134487 0 0.035218956693894306 0.033758326841924979 0 0.034551234973742642 0.034211410989816254 0 0.03462138025305856 0.033571518207667975 0 0.035067394615822083 0.033153772139134487 0 0.034551234973742642 0.034211410989816254 0 0.03462138025305856 0.033571518207667975 0 0.034551234973742642 0.034211410989816254 0 0.032785347368909534 0.034998339118734623 0 0.031926672116664313 0.035778021819352128 0 0.032776396867042423 0.034999994010400007 0 0.031024261443383501 0.034999985718864493 0 0.033169552013578553 0.034987547979551392 0 0.032776764607773852 0.034999927103885581 0 0.031087431420093629 0.036547152824151496 0 0.03115222391828527 0.035731736450722071 0 0.030483049004071484 0.035657039465186217 0 0.031087431420093629 0.036547152824151496 0 0.031926672116664313 0.035778021819352128 0 0.03115222391828527 0.035731736450722071 0 0.031926672116664313 0.035778021819352128 0 0.03115222391828527 0.035731736450722071 0 0.031024261443383501 0.034999985718864493 0 0.03115222391828527 0.035731736450722071 0 0.031024261443383501 0.034999985718864493 0 0.030483049004071484 0.035657039465186217 0 0.030483049004071484 0.035657039465186217 0 0.030199380474563244 0.035799596749818807 0 0.029272073886445579 0.034999997191760029 0 0.031024261443383501 0.034999985718864493 0 0.030483049004071484 0.035657039465186217 0 0.029272073886445579 0.034999997191760029 0 0.031087431420093629 0.036547152824151496 0 0.030483049004071484 0.035657039465186217 0 0.030206635194712683 0.035794723816266243 0 0.030337227158561571 0.035568241467278633 0 0.030337168682859288 0.035532823695043562 0 0.030337168682859288 0.035532823695043562 0 0.029272353401069501 0.035000253416769878 0 0.030157733607240493 0.03577890865920158 0 0.029271943202344795 0.034999964955218996 0 0.028510151450577843 0.036564357967049918 0 0.030337168682859288 0.035532823695043562 0 0.028673535744030639 0.036087090046589602 0 0.031733716969483461 0.035618253280554145 0 0.03069280637139889 0.034722616303163492 0 0.030400905290824093 0.036847071992105386 0 0.033016539499267451 0.034510200200340617 0 0.032032007459040279 0.034930956433162276 0 0.03069280637139889 0.034722616303163492 0 0.02876137333771352 0.035704289874603286 0 0.030400905290824093 0.036847071992105386 0 0.028510151450577843 0.036564357967049918 0 0.027208053578315222 0.034999932481106805 0 0.026292513485509136 0.036058631009748647 0 0.028510151450577843 0.036564357967049918 0 0.026292513485509136 0.036058631009748647 0 0.026824726006331089 0.03728592096057682 0 0.029271943202344795 0.034999964955218996 0 0.028510151450577843 0.036564357967049918 0 0.027208053578315222 0.034999932481106805 0 0.028673535744030639 0.036087090046589602 0 0.026848215585843535 0.037026727632196263 0 0.026889885438725128 0.036743230629016368 0 0.026726401460099379 0.038222185971734227 0 0.025220727687357992 0.037863109629457152 0 0.026889885438725128 0.036743230629016368 0 0.028515153209437129 0.037905031332816398 0 0.026726401460099379 0.038222185971734227 0 0.02876137333771352 0.035704289874603286 0 0.026889885438725128 0.036743230629016368 0 0.028901456534507763 0.036954716858900775 0 0.026889885438725128 0.036743230629016368 0 0.028515153209437129 0.037905031332816398 0 0.028901456534507763 0.036954716858900775 0 0.032663257345851557 0.034040326101670827 0 0.031101016300252422 0.03409834150788927 0 0.028515153209437129 0.037905031332816398 0 0.026726401460099379 0.038222185971734227 0 0.027446590381856758 0.039328004053300093 0 0.036413925847107578 0.028024532107872799 0 0.036346469369964669 0.028485138019899821 0 0.034469248846444402 0.029419170637475071 0 0.028515153209437129 0.037905031332816398 0 0.029036573387177182 0.038029381903628999 0 0.027446590381856758 0.039328004053300093 0 0.034285584452963168 0.032683259762626614 0 0.034105365830640749 0.032632433997858708 0 0.034200124321817009 0.032833207205552495 0 0.032032007459040279 0.034930956433162276 0 0.032663257345851557 0.034040326101670827 0 0.030400905290824093 0.036847071992105386 0 0.028901456534507763 0.036954716858900775 0 0.029069690872301424 0.038045561767027704 0 0.02876137333771352 0.035704289874603286 0 0.030400905290824093 0.036847071992105386 0 0.028901456534507763 0.036954716858900775 0 0.028515153209437129 0.037905031332816398 0 0.028901456534507763 0.036954716858900775 0 0.029069690872301424 0.038045561767027704 0 0.029946256451673061 0.035082427850538694 0 0.032663257345851557 0.034040326101670827 0 0.036413925847107578 0.028024532107872799 0 0.036346469369964669 0.028485138019899821 0 0.036696869367371654 0.028475755341788936 0 0.032663257345851557 0.034040326101670827 0 0.035968024554748394 0.03025798411425247 0 0.034105365830640749 0.032632433997858708 0 0.033923562393171833 0.032792004378768398 0 0.034200124321817009 0.032833207205552495 0 0.036413925847107578 0.028024532107872799 0 0.036930456331591324 0.02837484075989875 0 0.036696869367371654 0.028475755341788936 0 0.036696869367371654 0.028475755341788936 0 0.036640478451294492 0.028601367081015638 0 0.03693170881909439 0.028602839621887772 0 0.036930456331591324 0.02837484075989875 0 0.036696869367371654 0.028475755341788936 0 0.03693170881909439 0.028602839621887772 0 0.036696869367371654 0.028475755341788936 0 0.03655466854867407 0.028551516342111352 0 0.036640478451294492 0.028601367081015638 0 0.036346469369964669 0.028485138019899821 0 0.036564031273768026 0.028595256366068973 0 0.036590302660724355 0.028614851938825809 0 0.036346469369964669 0.028485138019899821 0 0.03655466854867407 0.028551516342111352 0 0.036564031273768026 0.028595256366068973 0 0.036346469369964669 0.028485138019899821 0 0.036696869367371654 0.028475755341788936 0 0.03655466854867407 0.028551516342111352 0 0.03655466854867407 0.028551516342111352 0 0.036564031273768026 0.028595256366068973 0 0.036640478451294492 0.028601367081015638 0 0.036640478451294492 0.028601367081015638 0 0.036632157964907285 0.028620915825166297 0 0.036703085807952673 0.028633863631439067 0 0.036564031273768026 0.028595256366068973 0 0.036640478451294492 0.028601367081015638 0 0.036632157964907285 0.028620915825166297 0 0.036564031273768026 0.028595256366068973 0 0.036632157964907285 0.028620915825166297 0 0.036590302660724355 0.028614851938825809 0 0.036632157964907285 0.028620915825166297 0 0.036703085807952673 0.028633863631439067 0 0.036696008324816905 0.028619552603390282 0 0.036703085807952673 0.028633863631439067 0 0.036777604393715885 0.028629730353222565 0 0.036696008324816905 0.028619552603390282 0 0.036703085807952673 0.028633863631439067 0 0.036777604393715885 0.028629730353222565 0 0.03693170881909439 0.028602839621887772 0 0.036640478451294492 0.028601367081015638 0 0.036703085807952673 0.028633863631439067 0 0.03693170881909439 0.028602839621887772 0 0.027446590381856758 0.039328004053300093 0 0.025759809405668618 0.039202973378006316 0 0.026001385861518629 0.040376522783906139 0 0.026726401460099379 0.038222185971734227 0 0.027446590381856758 0.039328004053300093 0 0.025759809405668618 0.039202973378006316 0 0.036304135674047701 0.028620805524851706 0 0.036040601559262538 0.029199294530922824 0 0.036346469369964669 0.028485138019899821 0 0.034469248846444402 0.029419170637475071 0 0.035314313139093896 0.030240038877460247 0 0.034469248846444402 0.029419170637475071 0 0.035314313139093896 0.030240038877460247 0 0.034144757927955752 0.030727995496490971 0 0.036040601559262538 0.029199294530922824 0 0.035163334483154014 0.031338487215203888 0 0.036632157964907285 0.028620915825166297 0 0.036590302660724355 0.028614851938825809 0 0.036634772812472419 0.028608393269929748 0 0.035314313139093896 0.030240038877460247 0 0.034144757927955752 0.030727995496490971 0 0.034277122808559567 0.032081473504032863 0 0.034469248846444402 0.029419170637475071 0 0.034144757927955752 0.030727995496490971 0 0.032510446308041535 0.03116699384816125 0 0.034144757927955752 0.030727995496490971 0 0.034277122808559567 0.032081473504032863 0 0.032510446308041535 0.03116699384816125 0 0.031101016300252422 0.03409834150788927 0 0.028951177439926364 0.036388235363058394 0 0.034277122808559567 0.032081473504032863 0 0.033282382454315189 0.033857375764035406 0 0.032679522001585581 0.032493410786631885 0 0.034277122808559567 0.032081473504032863 0 0.032510446308041535 0.03116699384816125 0 0.032679522001585581 0.032493410786631885 0 0.035163334483154014 0.031338487215203888 0 0.034693242247917699 0.025431213099845338 0 0.036654911215599856 0.028594719281035193 0 0.036634772812472419 0.028608393269929748 0 0.036631994113134725 0.028570876202949298 0 0.036632157964907285 0.028620915825166297 0 0.036654911215599856 0.028594719281035193 0 0.036634772812472419 0.028608393269929748 0 0.036654911215599856 0.028594719281035193 0 0.036631994113134725 0.028570876202949298 0 0.036663475490026208 0.028569013586213162 0 0.034693242247917699 0.025431213099845338 0 0.036306672546965978 0.024555599579151679 0 0.036696008324816905 0.028619552603390282 0 0.036697265068913701 0.028580006858575618 0 0.036724960809192957 0.02859936207683713 0 0.036777604393715885 0.028629730353222565 0 0.036696008324816905 0.028619552603390282 0 0.036724960809192957 0.02859936207683713 0 0.036654911215599856 0.028594719281035193 0 0.036696008324816905 0.028619552603390282 0 0.036697265068913701 0.028580006858575618 0 0.036632157964907285 0.028620915825166297 0 0.036654911215599856 0.028594719281035193 0 0.036696008324816905 0.028619552603390282 0 0.036654911215599856 0.028594719281035193 0 0.036697265068913701 0.028580006858575618 0 0.036663475490026208 0.028569013586213162 0 0.036697265068913701 0.028580006858575618 0 0.036700806913136583 0.02856021591006155 0 0.036724960809192957 0.02859936207683713 0 0.036697265068913701 0.028580006858575618 0 0.036700806913136583 0.02856021591006155 0 0.036703729042012564 0.028522026069649733 0 0.036700806913136583 0.02856021591006155 0 0.036675910242225399 0.028540977186992195 0 0.036689483793698387 0.028575699602382619 0 0.036700806913136583 0.02856021591006155 0 0.036689483793698387 0.028575699602382619 0 0.036724960809192957 0.02859936207683713 0 0.036689483793698387 0.028575699602382619 0 0.036724960809192957 0.02859936207683713 0 0.036711113810003144 0.028624529531076304 0 0.036777604393715885 0.028629730353222565 0 0.036724960809192957 0.02859936207683713 0 0.036711113810003144 0.028624529531076304 0 0.037428621745741762 0.028370634280208647 0 0.037136798459820382 0.027811261181014076 0 0.037119746494453883 0.02687714243237465 0 0.037033621749016497 0.028516173023618727 0 0.03707410275218153 0.027309534780082665 0 0.037142664434878049 0.028306137899872345 0 0.037136798459820382 0.027811261181014076 0 0.036654146043902415 0.028337884649946667 0 0.037428621745741762 0.028370634280208647 0 0.037142664434878049 0.028306137899872345 0 0.037136798459820382 0.027811261181014076 0 0.037136798459820382 0.027811261181014076 0 0.036726413698773067 0.027658869166594827 0 0.036654146043902415 0.028337884649946667 0 0.037136798459820382 0.027811261181014076 0 0.037001835164883916 0.027484503372117598 0 0.036726413698773067 0.027658869166594827 0 0.037136798459820382 0.027811261181014076 0 0.037001835164883916 0.027484503372117598 0 0.037119746494453883 0.02687714243237465 0 0.037001835164883916 0.027484503372117598 0 0.037006798539320783 0.027080397357558062 0 0.037119746494453883 0.02687714243237465 0 0.036689483793698387 0.028575699602382619 0 0.036711113810003144 0.028624529531076304 0 0.036636241524862487 0.028550485553461076 0 0.036675910242225399 0.028540977186992195 0 0.036689483793698387 0.028575699602382619 0 0.036636241524862487 0.028550485553461076 0 0.037097823106030714 0.027200807406435372 0 0.03707410275218153 0.027309534780082665 0 0.037006798539320783 0.027080397357558062 0 0.037135516358057861 0.02681044385559862 0 0.036493448289577415 0.026689354050261807 0 0.036493448289577415 0.026689354050261807 0 0.036645157711933031 0.027220461000837429 0 0.036165181682188921 0.027464181583495038 0 0.036493448289577415 0.026689354050261807 0 0.035795342324750193 0.026529845897186044 0 0.036165181682188921 0.027464181583495038 0 0.037006798539320783 0.027080397357558062 0 0.036493448289577415 0.026689354050261807 0 0.036645157711933031 0.027220461000837429 0 0.037001835164883916 0.027484503372117598 0 0.037006798539320783 0.027080397357558062 0 0.036645157711933031 0.027220461000837429 0 0.037001835164883916 0.027484503372117598 0 0.036645157711933031 0.027220461000837429 0 0.036726413698773067 0.027658869166594827 0 0.035795342324750193 0.026529845897186044 0 0.034999915735027684 0.027699839106595327 0 0.034999914572248825 0.025687722526503594 0 0.035795342324750193 0.026529845897186044 0 0.034999915735027684 0.027699839106595327 0 0.036165181682188921 0.027464181583495038 0 0.034999915735027684 0.027699839106595327 0 0.036165181682188921 0.027464181583495038 0 0.035814199052039343 0.028666232550663889 0 0.036165181682188921 0.027464181583495038 0 0.036654146043902415 0.028337884649946667 0 0.035814199052039343 0.028666232550663889 0 0.036726413698773067 0.027658869166594827 0 0.036165181682188921 0.027464181583495038 0 0.036654146043902415 0.028337884649946667 0 0.036645157711933031 0.027220461000837429 0 0.036726413698773067 0.027658869166594827 0 0.036165181682188921 0.027464181583495038 0 0.036009603115752638 0.030013847129849076 0 0.037576344823566553 0.028339915211142003 0 0.036654146043902415 0.028337884649946667 0 0.036075208546891509 0.029753278353620728 0 0.037272570423301322 0.02861584936236039 0 0.036654146043902415 0.028337884649946667 0 0.035814199052039343 0.028666232550663889 0 0.036075208546891509 0.029753278353620728 0 0.035814199052039343 0.028666232550663889 0 0.03499999420719889 0.029711317543532539 0 0.036075208546891509 0.029753278353620728 0 0.034999915735027684 0.027699839106595327 0 0.035814199052039343 0.028666232550663889 0 0.03499999420719889 0.029711317543532539 0 0.035000338675803287 0.029711930434244953 0 0.036009603115752638 0.030013847129849076 0 0.034999996813605647 0.029711933007024776 0 0.035115210242683104 0.030078334488316736 0 0.036177790069562205 0.030028409356095728 0 0.035497296002458198 0.030416373461423396 0 0.035115210242683104 0.030078334488316736 0 0.036177790069562205 0.030028409356095728 0 0.035023369614284483 0.031309842749116266 0 0.036009603115752638 0.030013847129849076 0 0.034999993762872751 0.030712328405626283 0 0.035504826531701401 0.030423712081155813 0 0.035115210242683104 0.030078334488316736 0 0.034999993762872751 0.030712328405626283 0 0.034999996813605647 0.029711933007024776 0 0.035115210242683104 0.030078334488316736 0 0.035023369614284483 0.031309842749116266 0 0.03490199114409092 0.030674193064044383 0 0.03500035280563861 0.030712720496922766 0 0.035023369614284483 0.031309842749116266 0 0.036009603115752638 0.030013847129849076 0 0.035784833173046163 0.030772550631454565 0 0.03461801270337167 0.032728546414215576 0 0.034777271082776832 0.032839268581192599 0 0.034687350772499709 0.032895068003149334 0 0.037234130310107791 0.028480000904944468 0 0.03715113549283864 0.028554828423571099 0 0.037272570423301322 0.02861584936236039 0 0.037346467431222961 0.028537988977467121 0 0.037234130310107791 0.028480000904944468 0 0.037272570423301322 0.02861584936236039 0 0.036930456331591324 0.02837484075989875 0 0.037234130310107791 0.028480000904944468 0 0.03715113549283864 0.028554828423571099 0 0.036930456331591324 0.02837484075989875 0 0.03715113549283864 0.028554828423571099 0 0.03693170881909439 0.028602839621887772 0 0.03715113549283864 0.028554828423571099 0 0.03693170881909439 0.028602839621887772 0 0.037272570423301322 0.02861584936236039 0 0.037428621745741762 0.028370634280208647 0 0.03693170881909439 0.028602839621887772 0 0.037272570423301322 0.02861584936236039 0 0.037033621749016497 0.028516173023618727 0 0.036939429299197954 0.028538872830797559 0 0.036777604393715885 0.028629730353222565 0 0.036711113810003144 0.028624529531076304 0 0.03693170881909439 0.028602839621887772 0 0.037428621745741762 0.028370634280208647 0 0.037142664434878049 0.028306137899872345 0 0.037272570423301322 0.02861584936236039 0 0.037142664434878049 0.028306137899872345 0 0.036654146043902415 0.028337884649946667 0 0.037272570423301322 0.02861584936236039 0 0.017952742958441677 0.037931894576476999 0 0.01578720618678256 0.037293692550118565 0 0.018219160317170319 0.037461743047809727 0 0.019115389396016213 0.039256213583683232 0 0.017164920828644542 0.038527249815928311 0 0.018219160317170319 0.037461743047809727 0 0.019952521815190912 0.037567911291748829 0 0.019115389396016213 0.039256213583683232 0 0.018219160317170319 0.037461743047809727 0 0.019256052604585502 0.03662286868016601 0 0.019952521815190912 0.037567911291748829 0 0.018219160317170319 0.037461743047809727 0 0.017956569862871401 0.036216893583972481 0 0.019256052604585502 0.03662286868016601 0 0.018219160317170319 0.037461743047809727 0 0.017956569862871401 0.036216893583972481 0 0.016465632779726486 0.036625148728943874 0 0.017956569862871401 0.036216893583972481 0 0.019016525225072106 0.034999984139299466 0 0.017016922494534004 0.034999920586824003 0 0.01806651475570923 0.036176282824155526 0 0.019495575574027313 0.035598231167165664 0 0.017956569862871401 0.036216893583972481 0 0.019463430845634951 0.035634236976643016 0 0.019016525225072106 0.034999984139299466 0 0.017956569862871401 0.036216893583972481 0 0.01957522178187885 0.035540279154380669 0 0.019256052604585502 0.03662286868016601 0 0.01957522178187885 0.035540279154380669 0 0.019256052604585502 0.03662286868016601 0 0.020528208496203681 0.036311086572024955 0 0.019256052604585502 0.03662286868016601 0 0.020528208496203681 0.036311086572024955 0 0.019952521815190912 0.037567911291748829 0 0.019495575574027313 0.035598231167165664 0 0.021015959212598918 0.035000104045487451 0 0.0194634308456349