<?xml version="1.0"?>
<VTKFile type="UnstructuredGrid" version="0.1" byte_order="LittleEndian">
<UnstructuredGrid>
<Piece NumberOfPoints="31784" NumberOfCells="11127">
<Points>
<DataArray type="Float64" NumberOfComponents="3" format="ascii">
-0.5 -0.5 0 -0.47195313969810748 -0.47481122521109881 0 -0.5 -0.45517223239845911 0 -0.5 -0.5 0 -0.47195313969810748 -0.47481122521109881 0 -0.45335892971806913 -0.5 0 -0.45335892971806913 -0.5 0 -0.44076583355802018 -0.46754340692400581 0 -0.420281768472478 -0.48063287485242651 0 -0.47195313969810748 -0.47481122521109881 0 -0.45335892971806913 -0.5 0 -0.44076583355802018 -0.46754340692400581 0 -0.44498276375334889 -0.44277739617446188 0 -0.44076583355802018 -0.46754340692400581 0 -0.42994431064125338 -0.44935154977227282 0 -0.44498276375334889 -0.44277739617446188 0 -0.44076583355802018 -0.46754340692400581 0 -0.46564093521444799 -0.45134048673302901 0 -0.47195313969810748 -0.47481122521109881 0 -0.44076583355802018 -0.46754340692400581 0 -0.46564093521444799 -0.45134048673302901 0 -0.44498276375334889 -0.44277739617446188 0 -0.46564093521444799 -0.45134048673302901 0 -0.4637803461504782 -0.43184455231440089 0 -0.46564093521444799 -0.45134048673302901 0 -0.48331898101307369 -0.43162816627705197 0 -0.4637803461504782 -0.43184455231440089 0 -0.46564093521444799 -0.45134048673302901 0 -0.5 -0.45517223239845911 0 -0.48331898101307369 -0.43162816627705197 0 -0.47195313969810748 -0.47481122521109881 0 -0.46564093521444799 -0.45134048673302901 0 -0.5 -0.45517223239845911 0 -0.48081337114765521 -0.40738652445076051 0 -0.48331898101307369 -0.43162816627705197 0 -0.49999999999999972 -0.39425847612528447 0 -0.5 -0.45517223239845911 0 -0.48331898101307369 -0.43162816627705197 0 -0.49999999999999972 -0.39425847612528447 0 -0.48081337114765521 -0.40738652445076051 0 -0.4616267422953107 -0.42051457277623661 0 -0.48081337114765521 -0.40738652445076051 0 -0.46419467671751052 -0.40117595395713518 0 -0.4616267422953107 -0.42051457277623661 0 -0.48081337114765521 -0.40738652445076051 0 -0.47421613210080632 -0.42199795573361643 0 -0.4616267422953107 -0.42051457277623661 0 -0.48081337114765521 -0.40738652445076051 0 -0.48331898101307369 -0.43162816627705197 0 -0.47421613210080632 -0.42199795573361643 0 -0.48331898101307369 -0.43162816627705197 0 -0.47421613210080632 -0.42199795573361643 0 -0.4637803461504782 -0.43184455231440089 0 -0.49999999999999972 -0.39425847612528447 0 -0.47740040585619831 -0.37866244440872338 0 -0.5 -0.36613403373003761 0 -0.49999999999999972 -0.39425847612528447 0 -0.47864162249791747 -0.39436753541088382 0 -0.47740040585619831 -0.37866244440872338 0 -0.48081337114765521 -0.40738652445076051 0 -0.49999999999999972 -0.39425847612528447 0 -0.47864162249791747 -0.39436753541088382 0 -0.48081337114765521 -0.40738652445076051 0 -0.49999999999999972 -0.39425847612528447 0 -0.48081337114765521 -0.40738652445076051 0 -0.47864162249791747 -0.39436753541088382 0 -0.46419467671751052 -0.40117595395713518 0 -0.47864162249791747 -0.39436753541088382 0 -0.47740040585619831 -0.37866244440872338 0 -0.46419467671751052 -0.40117595395713518 0 -0.47740040585619831 -0.37866244440872338 0 -0.46419467671751052 -0.40117595395713518 0 -0.47740040585619831 -0.37866244440872338 0 -0.46578787837660351 -0.37724047050536202 0 -0.4631204814674863 -0.38554315196631728 0 -0.47740040585619831 -0.37866244440872338 0 -0.4631204814674863 -0.38554315196631728 0 -0.46419467671751052 -0.40117595395713518 0 -0.45567031296207849 -0.38026519902373501 0 -0.46578787837660351 -0.37724047050536202 0 -0.4631204814674863 -0.38554315196631728 0 -0.45567031296207849 -0.38026519902373501 0 -0.4631204814674863 -0.38554315196631728 0 -0.45254913342504072 -0.39037169193663063 0 -0.46419467671751052 -0.40117595395713518 0 -0.44863156864490789 -0.40144303210361598 0 -0.44819452018359518 -0.41185484163464331 0 -0.4631204814674863 -0.38554315196631728 0 -0.46419467671751052 -0.40117595395713518 0 -0.45254913342504072 -0.39037169193663063 0 -0.46419467671751052 -0.40117595395713518 0 -0.44863156864490789 -0.40144303210361598 0 -0.45254913342504072 -0.39037169193663063 0 -0.44863156864490789 -0.40144303210361598 0 -0.43828190350027513 -0.39269291818792917 0 -0.43939387763557508 -0.40861353268669792 0 -0.44863156864490789 -0.40144303210361598 0 -0.43828190350027513 -0.39269291818792917 0 -0.45254913342504072 -0.39037169193663063 0 -0.45567031296207849 -0.38026519902373501 0 -0.45254913342504072 -0.39037169193663063 0 -0.44546726379484769 -0.37837182148071941 0 -0.43828190350027513 -0.39269291818792917 0 -0.45254913342504072 -0.39037169193663063 0 -0.44546726379484769 -0.37837182148071941 0 -0.43828190350027513 -0.39269291818792917 0 -0.44546726379484769 -0.37837182148071941 0 -0.43570306073217568 -0.38195662465183228 0 -0.44546726379484769 -0.37837182148071941 0 -0.43570306073217568 -0.38195662465183228 0 -0.4385075982461436 -0.36984117428956331 0 -0.44498276375334889 -0.44277739617446188 0 -0.4637803461504782 -0.43184455231440089 0 -0.45098894757882257 -0.42368946350554731 0 -0.4637803461504782 -0.43184455231440089 0 -0.4616267422953107 -0.42051457277623661 0 -0.45098894757882257 -0.42368946350554731 0 -0.47421613210080632 -0.42199795573361643 0 -0.4637803461504782 -0.43184455231440089 0 -0.4616267422953107 -0.42051457277623661 0 -0.46419467671751052 -0.40117595395713518 0 -0.45098894757882257 -0.42368946350554731 0 -0.46419467671751052 -0.40117595395713518 0 -0.4616267422953107 -0.42051457277623661 0 -0.45098894757882257 -0.42368946350554731 0 -0.46419467671751052 -0.40117595395713518 0 -0.44819452018359518 -0.41185484163464331 0 -0.45098894757882257 -0.42368946350554731 0 -0.44819452018359518 -0.41185484163464331 0 -0.43776353034116 -0.42435222592021971 0 -0.45098894757882257 -0.42368946350554731 0 -0.44819452018359518 -0.41185484163464331 0 -0.43939387763557508 -0.40861353268669792 0 -0.43776353034116 -0.42435222592021971 0 -0.44863156864490789 -0.40144303210361598 0 -0.44819452018359518 -0.41185484163464331 0 -0.43939387763557508 -0.40861353268669792 0 -0.44498276375334889 -0.44277739617446188 0 -0.43776353034116 -0.42435222592021971 0 -0.45098894757882257 -0.42368946350554731 0 -0.44498276375334889 -0.44277739617446188 0 -0.43776353034116 -0.42435222592021971 0 -0.42702300303687052 -0.43404634274125331 0 -0.43776353034116 -0.42435222592021971 0 -0.42702300303687052 -0.43404634274125331 0 -0.42876649365348518 -0.41669353582699342 0 -0.42702300303687052 -0.43404634274125331 0 -0.42876649365348518 -0.41669353582699342 0 -0.41716547965948392 -0.42255971974292789 0 -0.43939387763557508 -0.40861353268669792 0 -0.43776353034116 -0.42435222592021971 0 -0.42876649365348518 -0.41669353582699342 0 -0.43939387763557508 -0.40861353268669792 0 -0.42876649365348518 -0.41669353582699342 0 -0.42981850639815639 -0.40215468321327752 0 -0.42876649365348518 -0.41669353582699342 0 -0.42143456484966602 -0.40843471065758458 0 -0.42981850639815639 -0.40215468321327752 0 -0.42876649365348518 -0.41669353582699342 0 -0.42143456484966602 -0.40843471065758458 0 -0.41716547965948392 -0.42255971974292789 0 -0.41716547965948392 -0.42255971974292789 0 -0.40223907680406051 -0.42519587924638519 0 -0.40552523464215778 -0.40650567234662821 0 -0.42143456484966602 -0.40843471065758458 0 -0.41716547965948392 -0.42255971974292789 0 -0.40552523464215778 -0.40650567234662821 0 -0.42702300303687052 -0.43404634274125331 0 -0.41716547965948392 -0.42255971974292789 0 -0.41195509762624388 -0.44008942669196449 0 -0.41716547965948392 -0.42255971974292789 0 -0.40223907680406051 -0.42519587924638519 0 -0.41195509762624388 -0.44008942669196449 0 -0.42512980446940107 -0.37541018896899181 0 -0.42738806078602981 -0.38357458008510598 0 -0.41560316382788631 -0.38092683155568241 0 -0.42512980446940107 -0.37541018896899181 0 -0.43570306073217568 -0.38195662465183228 0 -0.42738806078602981 -0.38357458008510598 0 -0.42512980446940107 -0.37541018896899181 0 -0.43570306073217568 -0.38195662465183228 0 -0.4385075982461436 -0.36984117428956331 0 -0.43828190350027513 -0.39269291818792917 0 -0.43570306073217568 -0.38195662465183228 0 -0.42738806078602981 -0.38357458008510598 0 -0.42738806078602981 -0.38357458008510598 0 -0.4230367134737259 -0.39158010823211831 0 -0.41560316382788631 -0.38092683155568241 0 -0.43828190350027513 -0.39269291818792917 0 -0.42738806078602981 -0.38357458008510598 0 -0.4230367134737259 -0.39158010823211831 0 -0.43828190350027513 -0.39269291818792917 0 -0.43939387763557508 -0.40861353268669792 0 -0.42981850639815639 -0.40215468321327752 0 -0.4230367134737259 -0.39158010823211831 0 -0.42981850639815639 -0.40215468321327752 0 -0.41584039188478888 -0.39873858955586622 0 -0.43828190350027513 -0.39269291818792917 0 -0.4230367134737259 -0.39158010823211831 0 -0.42981850639815639 -0.40215468321327752 0 -0.42143456484966602 -0.40843471065758458 0 -0.42981850639815639 -0.40215468321327752 0 -0.41584039188478888 -0.39873858955586622 0 -0.42143456484966602 -0.40843471065758458 0 -0.41584039188478888 -0.39873858955586622 0 -0.40552523464215778 -0.40650567234662821 0 -0.41584039188478888 -0.39873858955586622 0 -0.4083823032698351 -0.39032347829971792 0 -0.40552523464215778 -0.40650567234662821 0 -0.4230367134737259 -0.39158010823211831 0 -0.41584039188478888 -0.39873858955586622 0 -0.4083823032698351 -0.39032347829971792 0 -0.4230367134737259 -0.39158010823211831 0 -0.4083823032698351 -0.39032347829971792 0 -0.41560316382788631 -0.38092683155568241 0 -0.4083823032698351 -0.39032347829971792 0 -0.41560316382788631 -0.38092683155568241 0 -0.4034719374953486 -0.38267888112340331 0 -0.41560316382788631 -0.38092683155568241 0 -0.41503021305809329 -0.3711562178611495 0 -0.40612780941816362 -0.37352494189598617 0 -0.41560316382788631 -0.38092683155568241 0 -0.4034719374953486 -0.38267888112340331 0 -0.40612780941816362 -0.37352494189598617 0 -0.42512980446940107 -0.37541018896899181 0 -0.41560316382788631 -0.38092683155568241 0 -0.41503021305809329 -0.3711562178611495 0 -0.391825054969
[...]
<PointData Scalars="" Vectors="displacement," Tensors="">
<DataArray type="Float64" Name="displacement" NumberOfComponents="3" format="ascii">
-0.0049997835785878927 -0.0049997806923925553 0 -0.0048447891168985737 -0.0048323038217553986 0 -0.0045521041465616105 -0.0049996074591265195 0 -0.0049997835785878927 -0.0049997806923925553 0 -0.0048447891168985737 -0.0048323038217553986 0 -0.0049995651343666229 -0.0045340285074328447 0 -0.0049995651343666229 -0.0045340285074328447 0 -0.0048843958231009291 -0.0046616023812843261 0 -0.0049636639553670599 -0.0042857602695316318 0 -0.0048447891168985737 -0.0048323038217553986 0 -0.0049995651343666229 -0.0045340285074328447 0 -0.0048843958231009291 -0.0046616023812843261 0 -0.0046077427935921414 -0.0048675706999261352 0 -0.0048843958231009291 -0.0046616023812843261 0 -0.0046286352437823813 -0.0048197417677012218 0 -0.0046077427935921414 -0.0048675706999261352 0 -0.0048843958231009291 -0.0046616023812843261 0 -0.0046582484836994939 -0.0048894452994544752 0 -0.0048447891168985737 -0.0048323038217553986 0 -0.0048843958231009291 -0.0046616023812843261 0 -0.0046582484836994939 -0.0048894452994544752 0 -0.0046077427935921414 -0.0048675706999261352 0 -0.0046582484836994939 -0.0048894452994544752 0 -0.0045066151059758204 -0.0049816763731714876 0 -0.0046582484836994939 -0.0048894452994544752 0 -0.0044174716419819217 -0.0049998146284275773 0 -0.0045066151059758204 -0.0049816763731714876 0 -0.0046582484836994939 -0.0048894452994544752 0 -0.0045521041465616105 -0.0049996074591265195 0 -0.0044174716419819217 -0.0049998146284275773 0 -0.0048447891168985737 -0.0048323038217553986 0 -0.0046582484836994939 -0.0048894452994544752 0 -0.0045521041465616105 -0.0049996074591265195 0 -0.0041885507901385441 -0.0050448031582996126 0 -0.0044174716419819217 -0.0049998146284275773 0 -0.0039429602379761177 -0.0049998922816057289 0 -0.0045521041465616105 -0.0049996074591265195 0 -0.0044174716419819217 -0.0049998146284275773 0 -0.0039429602379761177 -0.0049998922816057289 0 -0.0041665599381951338 -0.0050267795503559894 0 -0.0043762428188695033 -0.0050480855686668704 0 -0.0041242186578322841 -0.0050195320494090933 0 -0.0041155201492765218 -0.0051323155863871855 0 -0.0044217720457893463 -0.0050253591292703766 0 -0.0041885507901385441 -0.0050448031582996126 0 -0.0043698113651926447 -0.0050167941973717021 0 -0.0044217720457893463 -0.0050253591292703766 0 -0.0041885507901385441 -0.0050448031582996126 0 -0.0044174716419819217 -0.0049998146284275773 0 -0.0043698113651926447 -0.0050167941973717021 0 -0.0044174716419819217 -0.0049998146284275773 0 -0.0043698113651926447 -0.0050167941973717021 0 -0.0045066151059758204 -0.0049816763731714876 0 -0.0039425094447676848 -0.0049997943640447129 0 -0.0038276734014047894 -0.005101943093337306 0 -0.0036616241031441907 -0.0049999585196861636 0 -0.0039425094447676848 -0.0049997943640447129 0 -0.0039964363482309796 -0.0050660594055488171 0 -0.0038276734014047894 -0.005101943093337306 0 -0.0041242186578322841 -0.0050195320494090933 0 -0.0039425094447676848 -0.0049997943640447129 0 -0.0039964363482309796 -0.0050660594055488171 0 -0.0041665599381951338 -0.0050267795503559894 0 -0.0039426491298559969 -0.0049999801331107535 0 -0.0041242186578322841 -0.0050195320494090933 0 -0.0039964363482309796 -0.0050660594055488171 0 -0.0041155201492765218 -0.0051323155863871855 0 -0.0039964363482309796 -0.0050660594055488171 0 -0.0038276734014047894 -0.005101943093337306 0 -0.0041155201492765218 -0.0051323155863871855 0 -0.0041806961207893336 -0.0050908826328612553 0 -0.0043894389926485856 -0.0050910904662094291 0 -0.0045602210153211893 -0.005058507256481961 0 -0.0045286712059838538 -0.0051389786497044541 0 -0.004610466152491598 -0.0051017786906107122 0 -0.0045602210153211893 -0.005058507256481961 0 -0.004610466152491598 -0.0051017786906107122 0 -0.0046689072687120022 -0.0050843607827422499 0 -0.0046164285258792253 -0.0050859494346601319 0 -0.0045286712059838538 -0.0051389786497044541 0 -0.004610466152491598 -0.0051017786906107122 0 -0.0046164285258792253 -0.0050859494346601319 0 -0.004610466152491598 -0.0051017786906107122 0 -0.004663054914344416 -0.0050613736497984391 0 -0.0046689072687120022 -0.0050843607827422499 0 -0.0046723371718911423 -0.0050192004139320038 0 -0.0046277237627985988 -0.0049944520967735578 0 -0.004610466152491598 -0.0051017786906107122 0 -0.0046689072687120022 -0.0050843607827422499 0 -0.004663054914344416 -0.0050613736497984391 0 -0.0046689072687120022 -0.0050843607827422499 0 -0.0046723371718911423 -0.0050192004139320038 0 -0.004663054914344416 -0.0050613736497984391 0 -0.0046723371718911423 -0.0050192004139320038 0 -0.0047275598253192011 -0.0049842864861358964 0 -0.0046672846239795502 -0.0049461256951941071 0 -0.0046723371718911423 -0.0050192004139320038 0 -0.0047275598253192011 -0.0049842864861358964 0 -0.004663054914344416 -0.0050613736497984391 0 -0.0046164285258792253 -0.0050859494346601319 0 -0.004663054914344416 -0.0050613736497984391 0 -0.0046817623121824916 -0.0050490173415422748 0 -0.0047275598253192011 -0.0049842864861358964 0 -0.004663054914344416 -0.0050613736497984391 0 -0.0046817623121824916 -0.0050490173415422748 0 -0.0047275598253192011 -0.0049842864861358964 0 -0.0046817623121824916 -0.0050490173415422748 0 -0.004758376447750145 -0.0049924398425240015 0 -0.0046817623121824916 -0.0050490173415422748 0 -0.004758376447750145 -0.0049924398425240015 0 -0.0047000298888583555 -0.0050363220895439133 0 -0.0046077427935921414 -0.0048675706999261352 0 -0.0045066151059758204 -0.0049816763731714876 0 -0.00453802385037859 -0.0050040594503818897 0 -0.0045066151059758204 -0.0049816763731714876 0 -0.0044217720457893463 -0.0050253591292703766 0 -0.00453802385037859 -0.0050040594503818897 0 -0.0043698113651926447 -0.0050167941973717021 0 -0.0045066151059758204 -0.0049816763731714876 0 -0.0044217720457893463 -0.0050253591292703766 0 -0.0043894389926485856 -0.0050910904662094291 0 -0.0045033992072643463 -0.0050215825815387184 0 -0.0041155201492765218 -0.0051323155863871855 0 -0.0044217720457893463 -0.0050253591292703766 0 -0.00453802385037859 -0.0050040594503818897 0 -0.0046689072687120022 -0.0050843607827422499 0 -0.0046277237627985988 -0.0049944520967735578 0 -0.00453802385037859 -0.0050040594503818897 0 -0.0046277237627985988 -0.0049944520967735578 0 -0.0045982236994995098 -0.0049033288600103756 0 -0.00453802385037859 -0.0050040594503818897 0 -0.0046277237627985988 -0.0049944520967735578 0 -0.0046672846239795502 -0.0049461256951941071 0 -0.0045982236994995098 -0.0049033288600103756 0 -0.0046723371718911423 -0.0050192004139320038 0 -0.0046277237627985988 -0.0049944520967735578 0 -0.0046672846239795502 -0.0049461256951941071 0 -0.0046077427935921414 -0.0048675706999261352 0 -0.0045982236994995098 -0.0049033288600103756 0 -0.00453802385037859 -0.0050040594503818897 0 -0.0046077427935921414 -0.0048675706999261352 0 -0.0045982236994995098 -0.0049033288600103756 0 -0.0046152665005164085 -0.0048302667662226562 0 -0.0045982236994995098 -0.0049033288600103756 0 -0.0046152665005164085 -0.0048302667662226562 0 -0.0046595768112779011 -0.0048565410380200704 0 -0.0046152665005164085 -0.0048302667662226562 0 -0.0046595768112779011 -0.0048565410380200704 0 -0.004671470997755953 -0.0047683847792333589 0 -0.0046672846239795502 -0.0049461256951941071 0 -0.0045982236994995098 -0.0049033288600103756 0 -0.0046595768112779011 -0.0048565410380200704 0 -0.0046672846239795502 -0.0049461256951941071 0 -0.0046595768112779011 -0.0048565410380200704 0 -0.0047233745280265485 -0.0048931108167029622 0 -0.0046595768112779011 -0.0048565410380200704 0 -0.0047234444643735694 -0.0048081473244529502 0 -0.0047233745280265485 -0.0048931108167029622 0 -0.0046595768112779011 -0.0048565410380200704 0 -0.0047234444643735694 -0.0048081473244529502 0 -0.004671470997755953 -0.0047683847792333589 0 -0.004671470997755953 -0.0047683847792333589 0 -0.0047020326600321341 -0.0046287494435930717 0 -0.0047946479070411991 -0.0046468903150535014 0 -0.0047234444643735694 -0.0048081473244529502 0 -0.004671470997755953 -0.0047683847792333589 0 -0.0047946479070411991 -0.0046468903150535014 0 -0.0046152665005164085 -0.0048302667662226562 0 -0.004671470997755953 -0.0047683847792333589 0 -0.0046141577830105251 -0.004745368684037697 0 -0.004671470997755953 -0.0047683847792333589 0 -0.0047020326600321341 -0.0046287494435930717 0 -0.0046141577830105251 -0.004745368684037697 0 -0.0048851922139667037 -0.0049353791045273817 0 -0.0048170318261982325 -0.0049243565279671235 0 -0.0049201197089603025 -0.0047743214384267539 0 -0.0048851922139667037 -0.0049353791045273817 0 -0.004758376447750145 -0.0049924398425240015 0 -0.0048170318261982325 -0.0049243565279671235 0 -0.0048851922139667037 -0.0049353791045273817 0 -0.004758376447750145 -0.0049924398425240015 0 -0.0047000298888583555 -0.0050363220895439133 0 -0.0047275598253192011 -0.0049842864861358964 0 -0.004758376447750145 -0.0049924398425240015 0 -0.0048170318261982325 -0.0049243565279671235 0 -0.0048170318261982325 -0.0049243565279671235 0 -0.0048015623855257299 -0.0048549301766567738 0 -0.0049201197089603025 -0.0047743214384267539 0 -0.0047275598253192011 -0.0049842864861358964 0 -0.0048170318261982325 -0.0049243565279671235 0 -0.0048015623855257299 -0.0048549301766567738 0 -0.0047275598253192011 -0.0049842864861358964 0 -0.0046672846239795502 -0.0049461256951941071 0 -0.0047233745280265485 -0.0048931108167029622 0 -0.0048015623855257299 -0.0048549301766567738 0 -0.0047233745280265485 -0.0048931108167029622 0 -0.004796331892336617 -0.0047622237016453975 0 -0.0047275598253192011 -0.0049842864861358964 0 -0.0048015623855257299 -0.0048549301766567738 0 -0.0047233745280265485 -0.0048931108167029622 0 -0.0047234444643735694 -0.0048081473244529502 0 -0.0047233745280265485 -0.0048931108167029622 0 -0.004796331892336617 -0.0047622237016453975 0 -0.0047234444643735694 -0.0048081473244529502 0 -0.004796331892336617 -0.0047622237016453975 0 -0.0047946479070411991 -0.0046468903150535014 0 -0.004796331892336617 -0.0047622237016453975 0 -0.0048899892043244818 -0.0046723214919667201 0 -0.0047946479070411991 -0.0046468903150535014 0 -0.0048015623855257299 -0.0048549301766567738 0 -0.004796331892336617 -0.0047622237016453975 0 -0.0048899892043244818 -0.0046723214919667201 0 -0.0048015623855257299 -0.0048549301766567738 0 -0.0048899892043244818 -0.0046723214919667201 0 -0.0049201197089603025 -0.0047743214384267539 0 -0.0048899892043244818 -0.0046723214919667201 0 -0.0049201197089603025 -0.0047743214384267539 0 -0.0049833642264652291 -0.0045983992286930111 0 -0.0049201197089603025 -0.0047743214384267539 0 -0.0050638845702149051 -0.0047593563786351946 0 -0.0050757906749040712 -0.0046251849167238453 0 -0.0049201197089603025 -0.0047743214384267539 0 -0.0049833642264652291 -0.0045983992286930111 0 -0.0050757906749040712 -0.0046251849167238453 0 -0.0048851922139667037 -0.0049353791045273817 0 -0.0049201197089603025 -0.0047743214384267539 0 -0.0050638845702149051 -0.0047593563786351946 0 -0.0050861378016803342 -0.00443006369905952 0 -0.0049833642264652291 -0.0045983992286930111 0 -0.0050757906749040712 -0.0046251849167238453 0 -0.0048899892043244818 -0.0046723214919667201 0 -0.0049833642264652291 -0.0045983992286930111 0 -0.0049534468879828099 -0.004501178025602061 0 -0.0050861378016803342 -0.00443006369905952 0 -0.0049833642264652291 -0.0045983992286930111 0 -0.0049534468879828099 -0.004501178025602061 0 -0.0048899892043244818 -0.0046723214919667201 0 -0.0049534468879828099 -0.004501178025602061 0 -0.0047946479070411991 -0.0046468903150535014 0 -0.0049534468879828099 -0.004501178025602061 0 -0.0048981462876830206 -0.0044378598391321463 0 -0.0047946479070411991 -0.0046468903150535014 0 -0.0048981462876830206 -0.0044378598391321463 0 -0.0048832525591371136 -0.004302931482582103 0 -0.0049999074356299267 -0.0042288204483506555 0 -0.0048981462876830206 -0.0044378598391321463 0 -0.0050300629132472643 -0.0043267948566556354 0 -0.0049999074356299267 -0.0042288204483506555 0 -0.0049534468879828099 -0.004501178025602061 0 -0.0048981462876830206 -0.0044378598391321463 0 -0.0050300629132472643 -0.0043267948566556354 0 -0.0050300629132472643 -0.0043267948566556354 0 -0.005206344504692836 -0.0042346132507662757 0 -0.0051410157003094212 -0.0041339635094443609 0 -0.0050861378016803342 -0.00443006369905952 0 -0.0050300629132472643 -0.0043267948566556354 0 -0.005206344504692836 -0.0042346132507662757 0 -0.0050861378016803342 -0.00443006369905952 0 -0.0049534468879828099 -0.004501178025602061 0 -0.0050300629132472643 -0.0043267948566556354 0 -0.0047020326600321341 -0.0046287494435930717 0 -0.0046426663275152538 -0.0045173650511899669 0 -0.0047709888797155499 -0.0043933016367374202 0 -0.0047020326600321341 -0.0046287494435930717 0 -0.0046426663275152538 -0.0045173650511899669 0 -0.0046141577830105251 -0.004745368684037697 0 -0.0047020326600321341 -0.0046287494435930717 0 -0.0047946479070411991 -0.0046468903150535014 0 -0.0048018300671997553 -0.0045050685473936227 0 -0.0048981462876830206 -0.0044378598391321463 0 -0.0047946479070411991 -0.0046468903150535014 0 -0.0048018300671997553 -0.0045050685473936227 0 -0.0047020326600321341 -0.0046287494435930717 0 -0.0048018300671997553 -0.0045050685473936227 0 -0.0047709888797155499 -0.0043933016367374202 0 -0.0048018300671997553 -0.0045050685473936227 0 -0.0048832525591371136 -0.004302931482582103 0 -0.0047709888797155499 -0.0043933016367374202 0 -0.0048832525591371136 -0.004302931482582103 0 -0.0047709888797155499 -0.0043933016367374202 0 -0.0048199588555035604 -0.0041729822676099546 0 -0.0048981462876830206 -0.0044378598391321463 0 -0.0048018300671997553 -0.0045050685473936227 0 -0.0048832525591371136 -0.004302931482582103 0 -0.0046426663275152538 -0.0045173650511899669 0 -0.0047709888797155499 -0.0043933016367374202 0 -0.0045779143551548974 -0.0043074863497119904 0 -0.0046426663275152538 -0.0045173650511899669 0 -0.0045222326804112683 -0.0046079929565394483 0 -0.0045779143551548974 -0.0043074863497119904 0 -0.0049995651343666229 -0.0045340285074328447 0 -0.0049996982905719063 -0.0039059741036369588 0 -0.0049636639553670599 -0.0042857602695316318 0 -0.0047939182221944958 -0.0043303343305441111 0 -0.0047591282878184761 -0.0041518588844668709 0 -0.0046426663275152538 -0.0045173650511899669 0 -0.0045222326804112683 -0.0046079929565394483 0 -0.0046141577830105251 -0.004745368684037697 0 -0.0050587763542807983 -0.0040442679417593786 0 -0.0050071907523498629 -0.0040389003022873035 0 -0.0051061784284782601 -0.004256321839766283 0 -0.0050587763542807983 -0.0040442679417593786 0 -0.0049976208797952735 -0.0040028577920561562 0 -0.0050071907523498629 -0.0040389003022873035 0 -0.0049976208797952735 -0.0040028577920561562 0 -0.0049427221112294736 -0.0039840539174048851 0 -0.0049279381359175851 -0.0039764720392289074 0 -0.0049976208797952735 -0.0040028577920561562 0 -0.0049975376613422889 -0.0039915970087922321 0 -0.0049427221112294736 -0.0039840539174048851 0 -0.0050587763542807983 -0.0040442679417593786 0 -0.0049976208797952735 -0.0040028577920561562 0 -0.0049279381359175851 -0.0039764720392289074 0 -0.0049996982905719063 -0.0039059741036369588 0 -0.0050071907523498629 -0.0040389003022873035 0 -0.0049975376613422889 -0.0039915970087922321 0 -0.0049976208797952735 -0.0040028577920561562 0 -0.0050071907523498629 -0.0040389003022873035 0 -0.0049975376613422889 -0.0039915970087922321 0 -0.0049999707036612563 -0.0039055480287909202 0 -0.0049548829549254832 -0.0039316224035746538 0 -0.0050000222531917477 -0.0039054539845730283 0 -0.0050011000739349516 -0.0038568654228552722 0 -0.004999934220428051 -0.0036153658030704371 0 -0.0050000222531917477 -0.0039054539845730283 0 -0.0050011000739349516 -0.0038568654228552722 0 -0.0049220182288522533 -0.0038693094007329499 0 -0.0049996982905719063 -0.0039059741036369588 0 -0.0050071907523498629 -0.0040389003022873035 0 -0.0049636639553670599 -0.0042857602695316318 0 -0.0050071907523498629 -0.0040389003022873035 0 -0.0049636639553670599 -0.0042857602695316318 0 -0.0051061784284782601 -0.004256321839766283 0 -0.0048843958231009291 -0.0046616023812843261 0 -0.0049636639553670599 -0.0042857602695316318 0 -0.0051061784284782601 -0.004256321839766283 0 -0.0048813164894242278 -0.0046354198948136416 0 -0.004860417154576956 -0.0045247107630163284 0 -0.0048843958231009291 -0.0046616023812843261 0 -0.0046286352437823813 -0.0048197417677012218 0 -0.0046233014237125935 -0.0048172268487360293 0 -0.0046077427935921414 -0.0048675706999261352 0 -0.0046152665005164085 -0.0048302667662226562 0 -0.0046286352437823813 -0.0048197417677012218 0 -0.0046152665005164085 -0.0048302667662226562 0 -0.0046286352437823813 -0.0048197417677012218 0 -0.0046141577830105251 -0.004745368684037697 0 -0.0046286352437823813 -0.0048197417677012218 0 -0.0046141577830105251 -0.004745368684037697 0 -0.0046233014237125935 -0.0048172268487360293 0 -0.0045222326804112683 -0.0046079929565394483 0 -0.0046141577830105251 -0.004745368684037697 0 -0.0046233014237125935 -0.0048172268487360293 0 -0.0047939182221944958 -0.0043303343305441111 0 -0.004860417154576956 -0.0045247107630163284 0 -0.0037195371561187227 -0.0044487186768648861 0 -0.0038152965536655576 -0.0044784557675278452 0 -0.0037423307391282836 -0.0045372428234854807 0 -0.0037195371561187227 -0.0044487186768648861 0 -0.0037423307391282836 -0.0045372428234854807 0 -0.0036563152078909482 -0.0044874469621403804 0 -0.0038152965536655576 -0.0044784557675278452 0 -0.0039061478404464997 -0.0044645615024166922 0 -0.003900525995466201 -0.0045607260129004526 0 -0.0038152965536655576 -0.0044784557675278452 0 -0.003900525995466201 -0.0045607260129004526 0 -0.0037423307391282836 -0.0045372428234854807 0 -0.0038152965536655576 -0.0044784557675278452 0 -0.0038017922383135087 -0.0043699545858106089 0 -0.0039061478404464997 -0.0044645615024166922 0 -0.0037195371561187227 -0.0044487186768648861 0 -0.0038152965536655576 -0.0044784557675278452 0 -0.0038017922383135087 -0.0043699545858106089 0 -0.0037195371561187227 -0.0044487186768648861 0 -0.0038017922383135087 -0.0043699545858106089 0 -0.0036489017355431533 -0.0043950100340651704 0 -0.0027696056357678122 -0.0052416352855963588 0 -0.0025689903924079856 -0.0049584490498012831 0 -0.0017305223519192116 -0.0053103190795853981 0 -0.0033348315090522009 -0.0047899347815242837 0 -0.002548451526463658 -0.0047692601953194325 0 -0.0038017922383135087 -0.0043699545858106089 0 -0.0036405271021311427 -0.0043804437075426464 0 -0.0036489017355431533 -0.0043950100340651704 0 -0.0026303838426477931 -0.005111949842359644 0 -0.0020225943801379024 -0.0051266045836632678 0 -0.0026452908383660092 -0.0052755997231328337 0 -0.0025299980532373259 -0.0051669178141352549 0 -0.0024137486722582038 -0.0052764416887714676 0 -0.0025689903924079856 -0.0049584490498012831 0 -0.0017096443112214301 -0.0050078449155233793 0 -0.0017305223519192116 -0.0053103190795853981 0 -0.0026452908383660092 -0.0052755997231328337 0 -0.0025299980532373259 -0.0051669178141352549 0 -0.0026849043939441652 -0.0051379235808666499 0 -0.0025299980532373259 -0.0051669178141352549 0 -0.0025363538275366862 -0.0049999940053064556 0 -0.0026849043939441652 -0.0051379235808666499 0 -0.0025363538275366862 -0.0049999940053064556 0 -0.0026849043939441652 -0.0051379235808666499 0 -0.0028176141788330395 -0.0049999921822531405 0 -0.0026849043939441652 -0.0051379235808666499 0 -0.0028238426952642798 -0.0051517415213889542 0 -0.0028176141788330395 -0.0049999921822531405 0 -0.0027696056357678122 -0.0052416352855963588 0 -0.0025689903924079856 -0.0049584490498012831 0 -0.0034766517685780314 -0.0049562110119828551 0 -0.0026303838426477931 -0.005111949842359644 0 -0.0030697797731384395 -0.0051887726008990461 0 -0.0026452908383660092 -0.0052755997231328337 0 -0.0026849043939441652 -0.0051379235808666499 0 -0.0028769132567430769 -0.0052744640086536052 0 -0.0026439922951113884 -0.0051491554528556669 0 -0.0030697797731384395 -0.0051887726008990461 0 -0.0026849043939441652 -0.0051379235808666499 0 -0.0028731963122475