<?xml version="1.0"?>
<VTKFile type="UnstructuredGrid" version="0.1" byte_order="LittleEndian">
<UnstructuredGrid>
<Piece NumberOfPoints="31898" NumberOfCells="11152">
<Points>
<DataArray type="Float64" NumberOfComponents="3" format="ascii">
-0.5 -0.5 0 -0.47620991077874902 -0.44978878706170539 0 -0.49999999999999473 -0.42132396840504388 0 -0.5 -0.5 0 -0.47160970827802529 -0.4793630013852106 0 -0.47620991077874902 -0.44978878706170539 0 -0.5 -0.5 0 -0.47160970827802529 -0.4793630013852106 0 -0.44860394795025399 -0.5 0 -0.47160970827802529 -0.4793630013852106 0 -0.44860394795025399 -0.5 0 -0.4490820238307246 -0.45820516232899983 0 -0.44860394795025399 -0.5 0 -0.4490820238307246 -0.45820516232899983 0 -0.42881687682924802 -0.47781464288736519 0 -0.4490820238307246 -0.45820516232899983 0 -0.45555437223955858 -0.42914059360647611 0 -0.4490820238307246 -0.45820516232899983 0 -0.45555437223955858 -0.42914059360647611 0 -0.43867285131603428 -0.4271457417558665 0 -0.4490820238307246 -0.45820516232899983 0 -0.43867285131603428 -0.4271457417558665 0 -0.4263356171060747 -0.44269880333887462 0 -0.47160970827802529 -0.4793630013852106 0 -0.4490820238307246 -0.45820516232899983 0 -0.47620991077874902 -0.44978878706170539 0 -0.4490820238307246 -0.45820516232899983 0 -0.47620991077874902 -0.44978878706170539 0 -0.45555437223955858 -0.42914059360647611 0 -0.47620991077874902 -0.44978878706170539 0 -0.48101336032419229 -0.41069999664450008 0 -0.45555437223955858 -0.42914059360647611 0 -0.47620991077874902 -0.44978878706170539 0 -0.49999999999999473 -0.42132396840504388 0 -0.48101336032419229 -0.41069999664450008 0 -0.49999999999999473 -0.42132396840504388 0 -0.48101336032419229 -0.41069999664450008 0 -0.5 -0.393886241813306 0 -0.49999999999999473 -0.42132396840504388 0 -0.48101336032419229 -0.41069999664450008 0 -0.5 -0.393886241813306 0 -0.47854472220918332 -0.38978458738689759 0 -0.48422759779560409 -0.37130120630367158 0 -0.5 -0.393886241813306 0 -0.5 -0.36644851522156802 0 -0.48422759779560409 -0.37130120630367158 0 -0.48101336032419229 -0.41069999664450008 0 -0.5 -0.393886241813306 0 -0.47854472220918332 -0.38978458738689759 0 -0.48101336032419229 -0.41069999664450008 0 -0.47854472220918332 -0.38978458738689759 0 -0.46202672064839212 -0.40007602488395211 0 -0.48101336032419229 -0.41069999664450008 0 -0.46202672064839212 -0.40007602488395211 0 -0.47854472220918332 -0.38978458738689759 0 -0.46725442735267431 -0.37660061361585562 0 -0.46202672064839212 -0.40007602488395211 0 -0.47854472220918332 -0.38978458738689759 0 -0.46725442735267431 -0.37660061361585562 0 -0.48422759779560409 -0.37130120630367158 0 -0.46725442735267431 -0.37660061361585562 0 -0.46202672064839212 -0.40007602488395211 0 -0.46725442735267431 -0.37660061361585562 0 -0.45645674801697989 -0.38644133236760531 0 -0.46202672064839212 -0.40007602488395211 0 -0.46725442735267431 -0.37660061361585562 0 -0.45645674801697989 -0.38644133236760531 0 -0.4540003998136638 -0.37455519391687309 0 -0.45645674801697989 -0.38644133236760531 0 -0.46202672064839212 -0.40007602488395211 0 -0.44257020456291563 -0.38918913383950271 0 -0.46202672064839212 -0.40007602488395211 0 -0.44257020456291563 -0.38918913383950271 0 -0.44727608925983742 -0.41095911152778891 0 -0.46202672064839212 -0.40007602488395211 0 -0.44257020456291563 -0.38918913383950271 0 -0.44257020456291563 -0.38918913383950271 0 -0.44727608925983742 -0.41095911152778891 0 -0.43479358559901082 -0.4041454901736512 0 -0.44257020456291563 -0.38918913383950271 0 -0.4540003998136638 -0.37455519391687309 0 -0.44172858264042247 -0.37082207246888088 0 -0.45645674801697989 -0.38644133236760531 0 -0.44257020456291563 -0.38918913383950271 0 -0.4540003998136638 -0.37455519391687309 0 -0.46202672064839212 -0.40007602488395211 0 -0.45555437223955858 -0.42914059360647611 0 -0.44727608925983742 -0.41095911152778891 0 -0.46202672064839212 -0.40007602488395211 0 -0.45555437223955858 -0.42914059360647611 0 -0.48101336032419229 -0.41069999664450008 0 -0.46202672064839212 -0.40007602488395211 0 -0.45555437223955858 -0.42914059360647611 0 -0.44727608925983742 -0.41095911152778891 0 -0.43867285131603428 -0.4271457417558665 0 -0.43676601469929588 -0.41441201227470881 0 -0.44727608925983742 -0.41095911152778891 0 -0.43676601469929588 -0.41441201227470881 0 -0.43479358559901082 -0.4041454901736512 0 -0.45555437223955858 -0.42914059360647611 0 -0.44727608925983742 -0.41095911152778891 0 -0.43867285131603428 -0.4271457417558665 0 -0.43867285131603428 -0.4271457417558665 0 -0.42681803064840879 -0.42717069814352421 0 -0.4263356171060747 -0.44269880333887462 0 -0.42681803064840879 -0.42717069814352421 0 -0.41531815884496182 -0.42985383783075998 0 -0.4263356171060747 -0.44269880333887462 0 -0.42681803064840879 -0.42717069814352421 0 -0.42624289495594048 -0.42089725947505818 0 -0.42083332353326591 -0.42146747131641099 0 -0.42681803064840879 -0.42717069814352421 0 -0.43096994786351572 -0.41951492446283251 0 -0.42624289495594048 -0.42089725947505818 0 -0.43867285131603428 -0.4271457417558665 0 -0.42681803064840879 -0.42717069814352421 0 -0.43096994786351572 -0.41951492446283251 0 -0.43867285131603428 -0.4271457417558665 0 -0.43676601469929588 -0.41441201227470881 0 -0.43096994786351572 -0.41951492446283251 0 -0.43676601469929588 -0.41441201227470881 0 -0.43096994786351572 -0.41951492446283251 0 -0.42907264086257813 -0.41311715872526122 0 -0.43676601469929588 -0.41441201227470881 0 -0.42907264086257813 -0.41311715872526122 0 -0.43479358559901082 -0.4041454901736512 0 -0.42907264086257813 -0.41311715872526122 0 -0.43479358559901082 -0.4041454901736512 0 -0.42460885511582858 -0.40417321677700252 0 -0.42907264086257813 -0.41311715872526122 0 -0.41997834854398469 -0.41180534796019508 0 -0.42907264086257813 -0.41311715872526122 0 -0.42635027777857132 -0.41543594397746519 0 -0.41997834854398469 -0.41180534796019508 0 -0.42907264086257813 -0.41311715872526122 0 -0.41997834854398469 -0.41180534796019508 0 -0.42460885511582858 -0.40417321677700252 0 -0.42635027777857132 -0.41543594397746519 0 -0.41997834854398469 -0.41180534796019508 0 -0.42635027777857132 -0.41543594397746519 0 -0.42083332353326591 -0.42146747131641099 0 -0.41997834854398469 -0.41180534796019508 0 -0.43096994786351572 -0.41951492446283251 0 -0.42624289495594048 -0.42089725947505818 0 -0.42635027777857132 -0.41543594397746519 0 -0.43096994786351572 -0.41951492446283251 0 -0.42907264086257813 -0.41311715872526122 0 -0.42635027777857132 -0.41543594397746519 0 -0.42624289495594048 -0.42089725947505818 0 -0.42635027777857132 -0.41543594397746519 0 -0.42083332353326591 -0.42146747131641099 0 -0.42083332353326591 -0.42146747131641099 0 -0.41997834854398469 -0.41180534796019508 0 -0.40992282953163789 -0.42011435591993562 0 -0.41997834854398469 -0.41180534796019508 0 -0.39756877647335259 -0.40857286797681719 0 -0.41997834854398469 -0.41180534796019508 0 -0.40992282953163789 -0.42011435591993562 0 -0.39756877647335259 -0.40857286797681719 0 -0.40992282953163789 -0.42011435591993562 0 -0.41531815884496182 -0.42985383783075998 0 -0.39591554026262499 -0.42887225451549271 0 -0.41531815884496182 -0.42985383783075998 0 -0.39591554026262499 -0.42887225451549271 0 -0.41160927495564159 -0.44339431233754628 0 -0.42083332353326591 -0.42146747131641099 0 -0.40992282953163789 -0.42011435591993562 0 -0.41531815884496182 -0.42985383783075998 0 -0.42681803064840879 -0.42717069814352421 0 -0.42083332353326591 -0.42146747131641099 0 -0.41531815884496182 -0.42985383783075998 0 -0.44257020456291563 -0.38918913383950271 0 -0.42311368847744002 -0.37830224279505142 0 -0.42594061475171041 -0.39368797999533162 0 -0.44257020456291563 -0.38918913383950271 0 -0.42311368847744002 -0.37830224279505142 0 -0.44172858264042247 -0.37082207246888088 0 -0.44257020456291563 -0.38918913383950271 0 -0.42311368847744002 -0.37830224279505142 0 -0.42311368847744002 -0.37830224279505142 0 -0.42594061475171041 -0.39368797999533162 0 -0.416587075656149 -0.38785930376960043 0 -0.44257020456291563 -0.38918913383950271 0 -0.42594061475171041 -0.39368797999533162 0 -0.43479358559901082 -0.4041454901736512 0 -0.42594061475171041 -0.39368797999533162 0 -0.43479358559901082 -0.4041454901736512 0 -0.42460885511582858 -0.40417321677700252 0 -0.41997834854398469 -0.41180534796019508 0 -0.41325908582185972 -0.39811010703057192 0 -0.39770572831670092 -0.39911486077581648 0 -0.41997834854398469 -0.41180534796019508 0 -0.39770572831670092 -0.39911486077581648 0 -0.42594061475171041 -0.39368797999533162 0 -0.42460885511582858 -0.40417321677700252 0 -0.41325908582185972 -0.39811010703057192 0 -0.41997834854398469 -0.41180534796019508 0 -0.42460885511582858 -0.40417321677700252 0 -0.41325908582185972 -0.39811010703057192 0 -0.42594061475171041 -0.39368797999533162 0 -0.41325908582185972 -0.39811010703057192 0 -0.416587075656149 -0.38785930376960043 0 -0.41325908582185972 -0.39811010703057192 0 -0.416587075656149 -0.38785930376960043 0 -0.40403491357358612 -0.38133688525744702 0 -0.42311368847744002 -0.37830224279505142 0 -0.40403491357358612 -0.38133688525744702 0 -0.40365717239196519 -0.36741535175059892 0 -0.42311368847744002 -0.37830224279505142 0 -0.416587075656149 -0.38785930376960043 0 -0.40403491357358612 -0.38133688525744702 0 -0.40403491357358612 -0.38133688525744702 0 -0.39190790742475001 -0.38540387676521748 0 -0.39770572831670092 -0.39911486077581648 0 -0.40403491357358612 -0.38133688525744702 0 -0.39190790742475001 -0.38540387676521748 0 -0.3904578797192948 -0.37473938743617019 0 -0.41325908582185972 -0.39811010703057192 0 -0.40403491357358612 -0.38133688525744702 0 -0.39770572831670092 -0.39911486077581648 0 -0.39770572831670092 -0.39911486077581648 0 -0.37543310808941849 -0.38642437359143528 0 -0.39770572831670092 -0.39911486077581648 0 -0.37515920440272033 -0.40534038799344108 0 -0.37543310808941849 -0.38642437359143528 0 -0.39770572831670092 -0.39911486077581648 0 -0.37515920440272033 -0.40534038799344108 0 -0.39756877647335259 -0.40857286797681719
[...]
<PointData Scalars="" Vectors="displacement," Tensors="">
<DataArray type="Float64" Name="displacement" NumberOfComponents="3" format="ascii">
-0.084993006526337372 -6.5018191260139579e-07 0 -0.082849562999509449 -0.00043160474668721237 0 -0.084994308634132681 -1.800456426504275e-06 0 -0.084993006526337372 -6.5018191260139579e-07 0 -0.081279966796878683 -0.00028605563666379369 0 -0.082849562999509449 -0.00043160474668721237 0 -0.084993006526337372 -6.5018191260139579e-07 0 -0.081279966796878683 -0.00028605563666379369 0 -0.076267368514278538 -6.3043256626122306e-07 0 -0.081279966796878683 -0.00028605563666379369 0 -0.076267368514278538 -6.3043256626122306e-07 0 -0.079764972399333681 0.00019983707738691615 0 -0.076267368514278538 -6.3043256626122306e-07 0 -0.079764972399333681 0.00019983707738691615 0 -0.075792795659468795 -0.00016370596740062452 0 -0.080566475791758588 0.00053204929495463237 0 -0.080986225079554719 0.00053384447051650901 0 -0.079764972399333681 0.00019983707738691615 0 -0.078294308855257955 0.000847053226959544 0 -0.078160219541336923 0.00027240888609097102 0 -0.079764972399333681 0.00019983707738691615 0 -0.078160219541336923 0.00027240888609097102 0 -0.078292345926820453 2.6266142637076794e-05 0 -0.081279966796878683 -0.00028605563666379369 0 -0.079764972399333681 0.00019983707738691615 0 -0.082849562999509449 -0.00043160474668721237 0 -0.079764972399333681 0.00019983707738691615 0 -0.082849562999509449 -0.00043160474668721237 0 -0.083648229763663415 0.00065835440954721232 0 -0.082849562999509449 -0.00043160474668721237 0 -0.084720056134103564 -6.9407017380501777e-05 0 -0.083648229763663415 0.00065835440954721232 0 -0.082849562999509449 -0.00043160474668721237 0 -0.084994308634132681 -1.800456426504275e-06 0 -0.084720056134103564 -6.9407017380501777e-05 0 -0.084999997107406355 2.4256002493742156e-10 0 -0.084996407940082813 -1.022723068067016e-06 0 -0.084999995607126053 -1.3119591901304038e-09 0 -0.084997383627896619 1.0295983581770882e-06 0 -0.083705815205692383 0.00032859751655791187 0 -0.084999995607126053 -1.3119591901304038e-09 0 -0.084995759121200748 -1.8647406908104821e-06 0 -0.084998201878714888 -3.043544942665739e-06 0 -0.084999995607126053 -1.3119591901304038e-09 0 -0.084999992757850612 -4.605007472691597e-09 0 -0.084998201878714888 -3.043544942665739e-06 0 -0.084996407940082813 -1.022723068067016e-06 0 -0.084999995607126053 -1.3119591901304038e-09 0 -0.084995759121200748 -1.8647406908104821e-06 0 -0.084996407940082813 -1.022723068067016e-06 0 -0.084995759121200748 -1.8647406908104821e-06 0 -0.084991132832704652 -1.4648200951150951e-06 0 -0.083705815205692383 0.00032859751655791187 0 -0.081711819084745424 0.00039026235270524473 0 -0.084995759121200748 -1.8647406908104821e-06 0 -0.084994748272560011 -2.0115815460974127e-06 0 -0.084991132832704652 -1.4648200951150951e-06 0 -0.084995759121200748 -1.8647406908104821e-06 0 -0.084994748272560011 -2.0115815460974127e-06 0 -0.084998201878714888 -3.043544942665739e-06 0 -0.082994238209923396 0.00016268392038602382 0 -0.081711819084745424 0.00039026235270524473 0 -0.081322465750197193 0.00035509833829232789 0 -0.080877517951833372 0.00088008580793238469 0 -0.080244411909883559 0.00062297708352585717 0 -0.081322465750197193 0.00035509833829232789 0 -0.080877517951833372 0.00088008580793238469 0 -0.081444137183102464 0.0010069864819955367 0 -0.080877517951833372 0.00088008580793238469 0 -0.080244411909883559 0.00062297708352585717 0 -0.080760606816879882 0.0015276899367336917 0 -0.077529442905061974 0.0009931063968512449 0 -0.077236452613873643 0.00051046955999211913 0 -0.077812960172509105 0.00059893808679071267 0 -0.081711819084745424 0.00039026235270524473 0 -0.079611622858872952 0.0009199693763196435 0 -0.077236452613873643 0.00051046955999211913 0 -0.077812960172509105 0.00059893808679071267 0 -0.07764929199944684 0.00030252982755250488 0 -0.080760606816879882 0.0015276899367336917 0 -0.081444137183102464 0.0010069864819955367 0 -0.08161587977023077 0.0015690851013423269 0 -0.080877517951833372 0.00088008580793238469 0 -0.080760606816879882 0.0015276899367336917 0 -0.081444137183102464 0.0010069864819955367 0 -0.077529442905061974 0.0009931063968512449 0 -0.078294308855257955 0.000847053226959544 0 -0.077812960172509105 0.00059893808679071267 0 -0.081711819084745424 0.00039026235270524473 0 -0.080986225079554719 0.00053384447051650901 0 -0.084720056134103564 -6.9407017380501777e-05 0 -0.085017735346461981 0.00058698445594394712 0 -0.083648229763663415 0.00065835440954721232 0 -0.077812960172509105 0.00059893808679071267 0 -0.078160219541336923 0.00027240888609097102 0 -0.077930631302505507 0.00032843640280880019 0 -0.077812960172509105 0.00059893808679071267 0 -0.077930631302505507 0.00032843640280880019 0 -0.07764929199944684 0.00030252982755250488 0 -0.078294308855257955 0.000847053226959544 0 -0.077812960172509105 0.00059893808679071267 0 -0.078160219541336923 0.00027240888609097102 0 -0.078160219541336923 0.00027240888609097102 0 -0.078158496960396576 0.00016403530337189185 0 -0.078292345926820453 2.6266142637076794e-05 0 -0.078158496960396576 0.00016403530337189185 0 -0.0781728691520788 0.00027130285041751528 0 -0.078292345926820453 2.6266142637076794e-05 0 -0.078158496960396576 0.00016403530337189185 0 -0.078096286734426604 0.00017581956952125645 0 -0.07811972801498461 0.00020510335101512505 0 -0.078158496960396576 0.00016403530337189185 0 -0.078062836339680614 0.00021047821185698681 0 -0.078096286734426604 0.00017581956952125645 0 -0.078160219541336923 0.00027240888609097102 0 -0.078158496960396576 0.00016403530337189185 0 -0.078062836339680614 0.00021047821185698681 0 -0.078160219541336923 0.00027240888609097102 0 -0.077930631302505507 0.00032843640280880019 0 -0.078062836339680614 0.00021047821185698681 0 -0.077930631302505507 0.00032843640280880019 0 -0.078062836339680614 0.00021047821185698681 0 -0.077945060179246073 0.00017909815719026166 0 -0.077930631302505507 0.00032843640280880019 0 -0.077945060179246073 0.00017909815719026166 0 -0.07764929199944684 0.00030252982755250488 0 -0.077945060179246073 0.00017909815719026166 0 -0.07764929199944684 0.00030252982755250488 0 -0.07764725075712367 2.3730887330591082e-05 0 -0.070175164804684165 0.0019832697706855481 0 -0.069920733382791631 0.0021215428288046305 0 -0.077945060179246073 0.00017909815719026166 0 -0.07803913337599408 0.00014607999451537348 0 -0.077961882021210183 1.3167389441048765e-05 0 -0.077945060179246073 0.00017909815719026166 0 -0.077880546127586062 -0.00011349030454329969 0 -0.07764725075712367 2.3730887330591082e-05 0 -0.070163229341625458 0.0022026850993447701 0 -0.069920733382791631 0.0021215428288046305 0 -0.07803913337599408 0.00014607999451537348 0 -0.07811972801498461 0.00020510335101512505 0 -0.07813964920697343 0.00021651068882442214 0 -0.078062836339680614 0.00021047821185698681 0 -0.078096286734426604 0.00017581956952125645 0 -0.07803913337599408 0.00014607999451537348 0 -0.078062836339680614 0.00021047821185698681 0 -0.077945060179246073 0.00017909815719026166 0 -0.07803913337599408 0.00014607999451537348 0 -0.078096286734426604 0.00017581956952125645 0 -0.07803913337599408 0.00014607999451537348 0 -0.07811972801498461 0.00020510335101512505 0 -0.07811972801498461 0.00020510335101512505 0 -0.07813964920697343 0.00021651068882442214 0 -0.078138026085093737 0.00028463608270780984 0 -0.069920733382791631 0.0021215428288046305 0 -0.068046957055230242 0.0016672807173478798 0 -0.07813964920697343 0.00021651068882442214 0 -0.078138026085093737 0.00028463608270780984 0 -0.078169224151964145 0.00036156993378198105 0 -0.078138026085093737 0.00028463608270780984 0 -0.0781728691520788 0.00027130285041751528 0 -0.078106062844908675 0.0003837371525765189 0 -0.0781728691520788 0.00027130285041751528 0 -0.078106062844908675 0.0003837371525765189 0 -0.078120021693962149 0.00043753626128461887 0 -0.07811972801498461 0.00020510335101512505 0 -0.078138026085093737 0.00028463608270780984 0 -0.0781728691520788 0.00027130285041751528 0 -0.078158496960396576 0.00016403530337189185 0 -0.07811972801498461 0.00020510335101512505 0 -0.0781728691520788 0.00027130285041751528 0 -0.077236452613873643 0.00051046955999211913 0 -0.076870358746905301 -1.9095020718949081e-05 0 -0.077336242510992803 5.8841419393643391e-05 0 -0.080760606816879882 0.0015276899367336917 0 -0.081271210513209596 0.0023982054985360757 0 -0.08161587977023077 0.0015690851013423269 0 -0.079611622858872952 0.0009199693763196435 0 -0.077980101149220507 0.0017763011792230818 0 -0.076870358746905301 -1.9095020718949081e-05 0 -0.077336242510992803 5.8841419393643391e-05 0 -0.077145668622356764 -0.00020990851540848087 0 -0.077236452613873643 0.00051046955999211913 0 -0.077336242510992803 5.8841419393643391e-05 0 -0.07764929199944684 0.00030252982755250488 0 -0.077336242510992803 5.8841419393643391e-05 0 -0.07764929199944684 0.00030252982755250488 0 -0.07764725075712367 2.3730887330591082e-05 0 -0.077880546127586062 -0.00011349030454329969 0 -0.077455592890036298 -0.00031056849206002863 0 -0.077477445384528443 -0.00078219577793700969 0 -0.069920733382791631 0.0021215428288046305 0 -0.068335795030807958 0.0023574853351189412 0 -0.077336242510992803 5.8841419393643391e-05 0 -0.07764725075712367 2.3730887330591082e-05 0 -0.077455592890036298 -0.00031056849206002863 0 -0.077880546127586062 -0.00011349030454329969 0 -0.07764725075712367 2.3730887330591082e-05 0 -0.077455592890036298 -0.00031056849206002863 0 -0.077336242510992803 5.8841419393643391e-05 0 -0.077455592890036298 -0.00031056849206002863 0 -0.077145668622356764 -0.00020990851540848087 0 -0.077455592890036298 -0.00031056849206002863 0 -0.077145668622356764 -0.00020990851540848087 0 -0.076921963675402716 -0.00057237666517194192 0 -0.076870358746905301 -1.9095020718949081e-05 0 -0.076921963675402716 -0.00057237666517194192 0 -0.076526923903115593 -0.00057781248157194034 0 -0.076870358746905301 -1.9095020718949081e-05 0 -0.077145668622356764 -0.00020990851540848087 0 -0.076921963675402716 -0.00057237666517194192 0 -0.076921963675402716 -0.00057237666517194192 0 -0.077029713763173108 -0.00097669791652766421 0 -0.077477445384528443 -0.00078219577793700969 0 -0.076921963675402716 -0.00057237666517194192 0 -0.077029713763173108 -0.00097669791652766421 0 -0.076664788468911921 -0.001026766756830203 0 -0.077455592890036298 -0.00031056849206002863 0 -0.076921963675402716 -0.00057237666517194192 0 -0.077477445384528443 -0.00078219577793700969 0 -0.068335795030807958 0.0023574853351189412 0 -0.064102571442954268 0.0027183164333413243 0 -0.066691386967936681 0.0020956656930283292 0 -0.066913569536773049 0.001266129887920795 0 -0.066216843654204924 0.0012771859676486239 0 -0.066691386967936681 0.0020956656930283292 0 -0.066913569536773049 0.001266129887920795 0 -0.067040281088658643 0.0020902201980770954 0 -0.064115051969406783 0.0010381515241179677 0 -0.064102571442954268 0.0027183164333413243 0 -0.077048656509078509 -0.0015320302645400138 0 -0.076664788468911921 -0.001026766756830203 0 -0.076456995767417421 -0.0015343950094032319 0 -0.077029713763173108 -0.00097669791652766421 0 -0.077048656509078509 -0.0015320302645400138 0 -0.076664788468911921 -0.001026766756830203 0 -0.064102571442954268 0.0027183164333413243 0 -0.067897325732375363 0.0025048182313051949 0 -0.077029713763173108 -0.00097669791652766421 0 -0.077477445384528443 -0.00078219577793700969 0 -0.077048656509078509 -0.0015320302645400138 0 -0.067170319760694264 0.002912907778388311 0 -0.066691386967936681 0.0020956656930283292 0 -0.067040281088658643 0.0020902201980770954 0 -0.078138026085093737 0.00028463608270780984 0 -0.078106062844908675 0.0003837371525765189 0 -0.078169224151964145 0.00036156993378198105 0 -0.078146089247201928 0.00044099657807245848 0 -0.078106062844908675 0.0003837371525765189 0 -0.078169224151964145 0.00036156993378198105 0 -0.064115051969406783 0.0010381515241179677 0 -0.068046957055230242 0.0016672807173478798 0 -0.078146089247201928 0.00044099657807245848 0 -0.078106062844908675 0.0003837371525765189 0 -0.078074857891190119 0.0004464715804893025 0 -0.078106062844908675 0.0003837371525765189 0 -0.078074529015487712 0.00041356341017734899 0 -0.078074857891190119 0.0004464715804893025 0 -0.078074529015487712 0.00041356341017734899 0 -0.078000715649019572 0.000460623022625057 0 -0.078074857891190119 0.0004464715804893025 0 -0.078106062844908675 0.0003837371525765189 0 -0.078074529015487712 0.00041356341017734899 0 -0.078120021693962149 0.00043753626128461887 0 -0.078074529015487712 0.00041356341017734899 0 -0.078062755618731106 0.00041353640668842056 0 -0.078120021693962149 0.00043753626128461887 0 -0.076947625866059147 0.0015066270728651303 0 -0.072135208378207402 0.0017839792484882705 0 -0.075447554822149307 0.00051808137020199459 0 -0.057721420387235864 0.0040244151895953697 0 -0.058235279161970861 0.0020708676966981628 0 -0.060530599834466001 0.002547544261819649 0 -0.068739873492139336 -0.0013650962777281032 0 -0.066548743452579467 -0.00010564801668094568 0 -0.068739873492139336 -0.0013650962777281032 0 -0.068762541286661066 -0.0013567695429189885 0 -0.068739873492139336 -0.0013650962777281032 0 -0.066884066353770838 0.0004277322385593801 0 -0.078074529015487712 0.00041356341017734899 0 -0.078062755618731106 0.00041353640668842056 0 -0.078028753642569462 0.00042567490729543216 0 -0.078074529015487712 0.00041356341017734899 0 -0.078028753642569462 0.00042567490729543216 0 -0.078000715649019572 0.000460623022625057 0 -0.066884066353770838 0.0004277322385593801 0 -0.064866004746981801 0.0017602992506727713 0 -0.058235279161970861 0.0020708676966981628 0 -0.059564344979458235 0.0013523089068359971 0 -0.058755189784714577 6.7123202382737224e-05 0 -0.059564344979458235 0.0013523089068359971 0 -0.060530599834466001 0.002547544261819649 0 -0.060325605203013999 1.86016277565974e-05 0 -0.060530599834466001 0.002547544261819649 0 -0.062004053843930644 -0.00030784074744317515 0 -0.060325605203013999 1.86016277565974e-05 0 -0.059564344979458235 0.0013523089068359971 0 -0.060325605203013999 1.86016277565974e-05 0 -0.058755189784714577 6.7123202382737224e-05 0 -0.058235279161970861 0.0020708676966981628 0 -0.059564344979458235 0.0013523089068359971 0 -0.060530599834466001 0.002547544261819649 0 -0.064764080632142659 4.6514027724184246e-07 0 -0.066548743452579467 -0.00010564801668094568 0 -0.064753842246726603 4.3527922261320453e-06 0 -0.060530599834466001 0.002547544261819649 0 -0.062004053843930644 -0.00030784074744317515 0 -0.064769361136863463 6.8701475406083896e-06 0 -0.072135208378207402 0.0017839792484882705 0 -0.069696935117611963 -1.2285361769436795e-06 0 -0.072135208378207402 0.0017839792484882705 0 -0.075447554822149307 0.00051808137020199459 0 -0.069696935117611963 -1.2285361769436795e-06 0 -0.075447554822149307 0.00051808137020199459 0 -0.069696935117611963 -1.2285361769436795e-06 0 -0.075792795659468795 -0.00016370596740062452 0 -0.076267368514278538 -6.3043256626122306e-07 0 -0.069696935117611963 -1.2285361769436795e-06 0 -0.075792795659468795 -0.00016370596740062452 0 -0.075447554822149307 0.00051808137020199459 0 -0.075792795659468795 -0.00016370596740062452 0 -0.077556915100747567 6.1281586571547002e-05 0 -0.079764972399333681 0.00019983707738691615 0 -0.075792795659468795 -0.00016370596740062452 0 -0.077556915100747567 6.1281586571547002e-05 0 -0.079764972399333681 0.00019983707738691615 0 -0.077556915100747567 6.1281586571547002e-05 0 -0.078292345926820453 2.6266142637076794e-05 0 -0.077556915100747567 6.1281586571547002e-05 0 -0.078292345926820453 2.6266142637076794e-05 0 -0.077572533704928975 0.00034442390981804659 0 -0.078292345926820453 2.6266142637076794e-05 0 -0.078120021693962149 0.00043753626128461887 0 -0.077572533704928975 0.00034442390981804659 0 -0.0781728691520788 0.00027130285041751528 0 -0.078292345926820453 2.6266142637076794e-05 0 -0.078120021693962149 0.00043753626128461887 0 -0.077046440966339044 0.0014343546406175602 0 -0.078120021693962149 0.00043753626128461887 0 -0.077094153890631262 0.0011857240733479687 0 -0.078120021693962149 0.00043753626128461887 0 -0.077094153890631262 0.0011857240733479687 0 -0.077572533704928975 0.00034442390981804659 0 -0.068739873492139336 -0.0013650962777281032 0 -0.071008164962831369 -0.0019235948906575141 0 -0.075447554822149307 0.00051808137020199459 0 -0.077094153890631262 0.0011857240733479687 0 -0.077572533704928975 0.00034442390981804659 0 -0.076947625866059147 0.0015066270728651303 0 -0.075447554822149307 0.00051808137020199459 0 -0.077094153890631262 0.0011857240733479687 0 -0.075447554822149307 0.00051808137020199459 0 -0.077556915100747567 6.1281586571547002e-05 0 -0.077572533704928975 0.00034442390981804659 0 -0.078408804671041013 0.00090456751338248952 0 -0.074769145859886491 0.0031908356553310107 0 -0.084454150416684456 -0.00082193331792791626 0 -0.084570998381100299 -0.0035691911904294784 0 -0.083103708183527483 -0.0013485159952833447 0 -0.08484174857695112 0.00025222535773908729 0 -0.084893002056967259 0.00019360928498178513 0 -0.084905227337221875 0.00032795563150307965 0 -0.08484174857695112 0.00025222535773908729 0 -0.084827098839049694 0.00036506241426221815 0 -0.084905227337221875 0.00032795563150307965 0 -0.08484174857695112 0.00025222535773908729 0 -0.084768291890789188 0.00035781204755741536 0 -0.084827098839049694 0.00036506241426221815 0 -0.08484174857695112 0.00025222535773908729 0 -0.08485189498092334 0.00013930730124826936 0 -0.084864959137881849 0.00012963910261486452 0 -0.08484174857695112 0.00025222535773908729 0 -0.08485189498092334 0.00013930730124826936 0 -0.084893002056967259 0.00019360928498178513 0 -0.078408804671041013 0.00090456751338248952 0 -0.079503888686241281 0.00065569020381873316 0 -0.08485189498092334 0.00013930730124826936 0 -0.084893002056967259 0.00019360928498178513 0 -0.084738030530924227 0.00013677245152208747 0 -0.084454150416684456 -0.00082193331792791626 0 -0.084738030530924227 0.00013677245152208747 0 -0.083270132849694964 0.00011829839795750935 0 -0.084738030530924227 0.00013677245152208747 0 -0.084999755020625428 2.7615078539551953e-07 0 -0.084899620662276215 8.6526578132781006e-05 0 -0.084738030530924227 0.00013677245152208747 0 -0.084999755020625428 2.7615078539551953e-07 0 -0.084332129592718255 0.00016613010633429771 0 -0.084999755020625428 2.7615078539551953e-07 0 -0.084899620662276215 8.6526578132781006e-05 0 -0.084999832822952273 -9.3431342618279022e-09 0 -0.08485189498092334 0.00013930730124826936 0 -0.084738030530924227 0.00013677245152208747 0 -0.084899620662276215 8.6526578132781006e-05 0 -0.08485189498092334 0.00013930730124826936 0 -0.084899620662276215 8.6526578132781006e-05 0 -0.084864959137881849 0.00012963910261486452 0 -0.084864959137881849 0.00012963910261486452 0 -0.084912549928687783 2.507572937321874e-05 0 -0.084832212271639673 9.7698728496745593e-05 0 -0.084899620662276215 8.6526578132781006e-05 0 -0.084864959137881849 0.00012963910261486452 0 -0.084912549928687783 2.507572937321874e-05 0 -0.084999832822952273 -9.3431342618279022e-09 0 -0.084912549928687783 2.507572937321874e-05 0 -0.084999822968716138 2.3401392716060109e-08 0 -0.084899620662276215 8.6526578132781006e-05 0 -0.084999832822952273 -9.3431342618279022e-09 0 -0.084912549928687783 2.507572937321874e-05 0 -0.084912549928687783 2.507572937321874e-05 0 -0.084999822968716138 2.3401392716060109e-08 0 -0.08487235288850041 -2.2694808341604068e-05 0 -0.08487235288850041 -2.2694808341604068e-05 0 -0.084832212271639673 9.7698728496745593e-05 0 -0.084626745539768983 8.1920859621198661e-05 0 -0.084912549928687783 2.507572937321874e-05 0 -0.08487235288850041 -2.2694808341604068e-05 0 -0.084832212271639673 9.7698728496745593e-05 0 -0.084832212271639673 9.7698728496745593e-05 0 -0.084687156093703211 0.00022521765434074752 0 -0.084626745539768983 8.1920859621198661e-05 0 -0.084687156093703211 0.00022521765434074752 0 -0.084675194159435044 0.00034532749698898944 0 -0.08455923751156727 0.00033659291123632178 0 -0.084