<?xml version="1.0"?>
<VTKFile type="UnstructuredGrid" version="0.1" byte_order="LittleEndian">
<UnstructuredGrid>
<Piece NumberOfPoints="30216" NumberOfCells="10569">
<Points>
<DataArray type="Float64" NumberOfComponents="3" format="ascii">
-0.5 -0.5 0 -0.500000000000003 -0.47387910615940992 0 -0.47465271013153171 -0.47472111009224632 0 -0.5 -0.5 0 -0.47465271013153171 -0.47472111009224632 0 -0.47261021182536 -0.50000000000000067 0 -0.47261021182536 -0.50000000000000067 0 -0.44755414560184781 -0.49445982194884841 0 -0.47261021182536 -0.50000000000000067 0 -0.44594502469383351 -0.5 0 -0.44755414560184781 -0.49445982194884841 0 -0.47465271013153171 -0.47472111009224632 0 -0.47261021182536 -0.50000000000000067 0 -0.44755414560184781 -0.49445982194884841 0 -0.44755414560184781 -0.49445982194884841 0 -0.45208872913075621 -0.46314264578579778 0 -0.43559960621689908 -0.47690486664813181 0 -0.47465271013153171 -0.47472111009224632 0 -0.44755414560184781 -0.49445982194884841 0 -0.45208872913075621 -0.46314264578579778 0 -0.44594502469383351 -0.5 0 -0.44755414560184781 -0.49445982194884841 0 -0.42249807937833572 -0.48891964389769538 0 -0.45208872913075621 -0.46314264578579778 0 -0.46791672135621343 -0.44832966308460948 0 -0.4542185954388015 -0.43157063856233979 0 -0.45208872913075621 -0.46314264578579778 0 -0.4542185954388015 -0.43157063856233979 0 -0.43104918068613451 -0.43950654264135719 0 -0.45208872913075621 -0.46314264578579778 0 -0.43559960621689908 -0.47690486664813181 0 -0.4256217579879662 -0.46211584969857128 0 -0.47465271013153171 -0.47472111009224632 0 -0.45208872913075621 -0.46314264578579778 0 -0.46791672135621343 -0.44832966308460948 0 -0.46791672135621343 -0.44832966308460948 0 -0.48869400509573752 -0.44875692032136533 0 -0.47738801019146848 -0.42363473448332212 0 -0.47465271013153171 -0.47472111009224632 0 -0.46791672135621343 -0.44832966308460948 0 -0.48869400509573752 -0.44875692032136533 0 -0.500000000000003 -0.47387910615940992 0 -0.48869400509573752 -0.44875692032136533 0 -0.5 -0.44488443186898541 0 -0.500000000000003 -0.47387910615940992 0 -0.47465271013153171 -0.47472111009224632 0 -0.48869400509573752 -0.44875692032136533 0 -0.500000000000003 -0.47387910615940992 0 -0.48869400509573752 -0.44875692032136533 0 -0.48869400509573752 -0.44875692032136533 0 -0.5 -0.44488443186898541 0 -0.47738801019146848 -0.42363473448332212 0 -0.5 -0.44488443186898541 0 -0.50000000000000089 -0.41588975757856089 0 -0.47738801019146848 -0.42363473448332212 0 -0.50000000000000089 -0.41588975757856089 0 -0.47738801019146848 -0.42363473448332212 0 -0.48540935015958903 -0.40091368828034829 0 -0.50000000000000089 -0.41588975757856089 0 -0.47738801019146848 -0.42363473448332212 0 -0.47738801019146848 -0.42363473448332212 0 -0.48540935015958903 -0.40091368828034829 0 -0.46712802750809113 -0.40083681233233631 0 -0.47738801019146848 -0.42363473448332212 0 -0.46712802750809113 -0.40083681233233631 0 -0.48869400509573752 -0.44875692032136533 0 -0.47738801019146848 -0.42363473448332212 0 -0.50000000000000022 -0.38852600732545622 0 -0.47843402241235627 -0.38328244875340373 0 -0.50000000000000022 -0.38852600732545622 0 -0.47843402241235627 -0.38328244875340373 0 -0.5 -0.36133801216824207 0 -0.50000000000000022 -0.38852600732545622 0 -0.48540935015958903 -0.40091368828034829 0 -0.47843402241235627 -0.38328244875340373 0 -0.50000000000000089 -0.41588975757856089 0 -0.50000000000000022 -0.38852600732545622 0 -0.48540935015958903 -0.40091368828034829 0 -0.48540935015958903 -0.40091368828034829 0 -0.47843402241235627 -0.38328244875340373 0 -0.46712802750809113 -0.40083681233233631 0 -0.47843402241235627 -0.38328244875340373 0 -0.45686804482471238 -0.37803889018135112 0 -0.45686804482471238 -0.37803889018135112 0 -0.46712802750809113 -0.40083681233233631 0 -0.47843402241235627 -0.38328244875340373 0 -0.45686804482471238 -0.37803889018135112 0 -0.46712802750809113 -0.40083681233233631 0 -0.45686804482471238 -0.37803889018135112 0 -0.46712802750809113 -0.40083681233233631 0 -0.44580486283467308 -0.39597473054352672 0 -0.46712802750809113 -0.40083681233233631 0 -0.44580486283467308 -0.39597473054352672 0 -0.45589391656625911 -0.41419618907926897 0 -0.45686804482471238 -0.37803889018135112 0 -0.43440959155470049 -0.37257833479125019 0 -0.45686804482471238 -0.37803889018135112 0 -0.44580486283467308 -0.39597473054352672 0 -0.43440959155470049 -0.37257833479125019 0 -0.46791672135621343 -0.44832966308460948 0 -0.47738801019146848 -0.42363473448332212 0 -0.4542185954388015 -0.43157063856233979 0 -0.47738801019146848 -0.42363473448332212 0 -0.4542185954388015 -0.43157063856233979 0 -0.45589391656625911 -0.41419618907926897 0 -0.47738801019146848 -0.42363473448332212 0 -0.4542185954388015 -0.43157063856233979 0 -0.47738801019146848 -0.42363473448332212 0 -0.46712802750809113 -0.40083681233233631 0 -0.45589391656625911 -0.41419618907926897 0 -0.4542185954388015 -0.43157063856233979 0 -0.45589391656625911 -0.41419618907926897 0 -0.43726934138190787 -0.41571049340060962 0 -0.44580486283467308 -0.39597473054352672 0 -0.45589391656625911 -0.41419618907926897 0 -0.43726934138190787 -0.41571049340060962 0 -0.4542185954388015 -0.43157063856233979 0 -0.43726934138190787 -0.41571049340060962 0 -0.43104918068613451 -0.43950654264135719 0 -0.4542185954388015 -0.43157063856233979 0 -0.43104918068613451 -0.43950654264135719 0 -0.43726934138190787 -0.41571049340060962 0 -0.41557001055291942 -0.4209650550983603 0 -0.43104918068613451 -0.43950654264135719 0 -0.43726934138190787 -0.41571049340060962 0 -0.41557001055291942 -0.4209650550983603 0 -0.42326025517236782 -0.39448766347634362 0 -0.41557001055291942 -0.4209650550983603 0 -0.40896430047291737 -0.3997713238665262 0 -0.40113686528745318 -0.41453561802669348 0 -0.41557001055291942 -0.4209650550983603 0 -0.42326025517236782 -0.39448766347634362 0 -0.41557001055291942 -0.4209650550983603 0 -0.40787976593346809 -0.44744244672037642 0 -0.41557001055291942 -0.4209650550983603 0 -0.39917366122136261 -0.42819610570855038 0 -0.40787976593346809 -0.44744244672037642 0 -0.41557001055291942 -0.4209650550983603 0 -0.43104918068613451 -0.43950654264135719 0 -0.40787976593346809 -0.44744244672037642 0 -0.44580486283467308 -0.39597473054352672 0 -0.42326025517236782 -0.39448766347634362 0 -0.43440959155470049 -0.37257833479125019 0 -0.44580486283467308 -0.39597473054352672 0 -0.43726934138190787 -0.41571049340060962 0 -0.42326025517236782 -0.39448766347634362 0 -0.41557001055291942 -0.4209650550983603 0 -0.42326025517236782 -0.39448766347634362 0 -0.40896430047291737 -0.3997713238665262 0 -0.42326025517236782 -0.39448766347634362 0 -0.40652083043305021 -0.37643045285707111 0 -0.43440959155470049 -0.37257833479125019 0 -0.42326025517236782 -0.39448766347634362 0 -0.40896430047291737 -0.3997713238665262 0 -0.40652083043305021 -0.37643045285707111 0 -0.40652083043305021 -0.37643045285707111 0 -0.38910877505687053 -0.38734206271014671 0 -0.38722065725087462 -0.3727228525611424 0 -0.40896430047291737 -0.3997713238665262 0 -0.40652083043305021 -0.37643045285707111 0 -0.38910877505687053 -0.38734206271014671 0 -0.40896430047291737 -0.3997713238665262 0 -0.3914686432601977 -0.40389401324505741 0 -0.40113686528745318 -0.41453561802669348 0 -0.40896430047291737 -0.3997713238665262 0 -0.38910877505687053 -0.38734206271014671 0 -0.40896430047291737 -0.3997713238665262 0 -0.3914686432601977 -0.40389401324505741 0 -0.38910877505687053 -0.38734206271014671 0 -0.3914686432601977 -0.40389401324505741 0 -0.37518229609146492 -0.39849904928886631 0 -0.38910877505687053 -0.38734206271014671 0 -0.38910877505687053 -0.38734206271014671 0 -0.38722065725087462 -0.3727228525611424 0 -0.36925324964082362 -0.37491280155376688 0 -0.38910877505687053 -0.38734206271014671 0 -0.36925324964082362 -0.37491280155376688 0 -0.37518229609146492 -0.39849904928886631 0 -0.38910877505687053 -0.38734206271014671 0 -0.36925324964082362 -0.37491280155376688 0 -0.3914686432601977 -0.40389401324505741 0 -0.40113686528745318 -0.41453561802669348 0 -0.38295097939228251 -0.41932201233305438 0 -0.41557001055291942 -0.4209650550983603 0 -0.39917366122136261 -0.42819610570855038 0 -0.40113686528745318 -0.41453561802669348 0 -0.39917366122136261 -0.42819610570855038 0 -0.40113686528745318 -0.41453561802669348 0 -0.38295097939228251 -0.41932201233305438 0 -0.3914686432601977 -0.40389401324505741 0 -0.37518229609146492 -0.39849904928886631 0 -0.38295097939228251 -0.41932201233305438 0 -0.38295097939228251 -0.41932201233305438 0 -0.38833068494069062 -0.43871539636426909 0 -0.36335345481182962 -0.43638327528025278 0 -0.39917366122136261 -0.42819610570855038 0 -0.38295097939228251 -0.41932201233305438 0 -0.38833068494069062 -0.43871539636426909 0 -0.38833068494069062 -0.43871539636426909 0 -0.37961434410022032 -0.45712381669955382 0 -0.36335345481182962 -0.43638327528025278 0 -0.37961434410022032 -0.45712381669955382 0 -0.40787976593346809 -0.44744244672037642 0 -0.39917366122136261 -0.42819610570855038 0 -0.38833068494069062 -0.43871539636426909 0 -0.40787976593346809 -0.44744244672037642 0 -0.38833068494069062 -0.43871539636426909 0 -0.37961434410022032 -0.45712381669955382 0 -0.40787976593346809 -0.44744244672037642 0 -0.40266088954414769 -0.46541095628345991 0 -0.37961434410022032 -0.45712381669955382 0 -0.39476360579206049 -0.47216482242284552 0 -0.40266088954414769 -0.46541095628345991 0 -0.37961434410022032 -0.45712381669955382 0 -0.40787976593346809 -0.44744244672037642 0 -0.40266088954414769 -0.46541095628345991 0 -0.40787976593346809 -0.44744244672037642 0 -0.37961434410022032 -0.45712381669955382 0 -0.382861635596695 -0.47177938139130371 0 -0.39476360579206049 -0.47216482242284552 0 -0.37961434410022032 -0.45712381669955382 0 -0.382861635596695 -0.47177938139130371 0 -0.3703098119603494 -0.46779139183271728 0 -0.382861635596695 -0.47177938139130371 0 -0.37436745694621099 -0.47901044162751499 0 -0.3703098119603494 -0.46779139183271728 0 -0.38372729115453258 -0.4803514914
[...]
<PointData Scalars="" Vectors="displacement," Tensors="">
<DataArray type="Float64" Name="displacement" NumberOfComponents="3" format="ascii">
3.8152099292750917e-07 0.014998859636029867 0 -6.0052250305457699e-07 0.014218674251738877 0 -2.5460640640367155e-05 0.014779759165324376 0 3.8152099292750917e-07 0.014998859636029867 0 -2.5460640640367155e-05 0.014779759165324376 0 -1.2993943973936425e-07 0.014999925883155078 0 6.5919807308758647e-09 0.015000013017228366 0 1.9230510491242063e-05 0.014998888319331442 0 -4.697978963243256e-11 0.014999999948638982 0 1.8785603869440407e-10 0.015000000119546041 0 1.0683803726876122e-08 0.015000042018920912 0 -2.5460640640367155e-05 0.014779759165324376 0 -1.2993943973936425e-07 0.014999925883155078 0 4.2904151882877051e-05 0.015001037091703947 0 4.2904151882877051e-05 0.015001037091703947 0 -0.00017797187863276287 0.014960938905292653 0 -8.2385430748398611e-05 0.015090445694276689 0 -2.5460640640367155e-05 0.014779759165324376 0 4.2904151882877051e-05 0.015001037091703947 0 -0.00017797187863276287 0.014960938905292653 0 1.8785603869440407e-10 0.015000000119546041 0 1.0683803726876122e-08 0.015000042018920912 0 -1.2850588328222854e-07 0.015000383810650971 0 -0.00017797187863276287 0.014960938905292653 0 -0.0003460231309711985 0.014792154020754579 0 -0.00050521239435253826 0.014924898959251576 0 -0.00017797187863276287 0.014960938905292653 0 -0.00050521239435253826 0.014924898959251576 0 -0.00039943641631003221 0.01513399493338264 0 -0.00017797187863276287 0.014960938905292653 0 -8.2385430748398611e-05 0.015090445694276689 0 -0.00020055392193308455 0.015172401211901219 0 -2.5460640640367155e-05 0.014779759165324376 0 -0.00017797187863276287 0.014960938905292653 0 -0.0003460231309711985 0.014792154020754579 0 -0.0003460231309711985 0.014792154020754579 0 -0.00037460133026620264 0.014519481978498566 0 -0.00061664822362052967 0.014668071596770724 0 -2.5460640640367155e-05 0.014779759165324376 0 -0.0003460231309711985 0.014792154020754579 0 -0.00037460133026620264 0.014519481978498566 0 -2.5337702926020622e-07 0.014216134245125089 0 -1.7366026832350082e-05 0.013308661999568327 0 2.5523381728924366e-07 0.01334591848999141 0 -6.0052250305457699e-07 0.014218674251738877 0 -2.5460640640367155e-05 0.014779759165324376 0 -0.00037460133026620264 0.014519481978498566 0 2.1661387790233214e-07 0.014216113016597693 0 -0.00022381854732657269 0.013967717948954652 0 -1.7366026832350082e-05 0.013308661999568327 0 2.5523381728924366e-07 0.01334591848999141 0 2.4918159200336851e-05 0.012939309692568369 0 2.5523381728924366e-07 0.01334591848999141 0 -2.6225702303587721e-07 0.012478178401461605 0 2.4918159200336851e-05 0.012939309692568369 0 4.8836166285777476e-08 0.012474825150804681 0 -7.6066195567514914e-05 0.012095128052599435 0 8.2910424865087452e-05 0.012077790358281101 0 -3.203430431848003e-07 0.012475490878497262 0 2.2035673972508965e-05 0.013490149251903333 0 -7.6066195567514914e-05 0.012095128052599435 0 8.2910424865087452e-05 0.012077790358281101 0 4.9456030641822178e-05 0.012115067382601444 0 2.2035673972508965e-05 0.013490149251903333 0 0.00033697923365513327 0.013158899119393252 0 -0.00022381854732657269 0.013967717948954652 0 2.2035673972508965e-05 0.013490149251903333 0 -1.5275913246230786e-07 0.011655892434751651 0 -0.00018017922910853245 0.010962547903620281 0 -1.5115329083688553e-06 0.011654036319345933 0 -0.00035007312801424949 0.010453758169662451 0 3.9735286524065859e-07 0.010840105886379615 0 -4.0550050487324218e-08 0.011657666694782342 0 8.2910424865087452e-05 0.012077790358281101 0 -7.1460469076961773e-05 0.012084656672417832 0 4.8836166285777476e-08 0.012474825150804681 0 -4.0550050487324218e-08 0.011657666694782342 0 8.2910424865087452e-05 0.012077790358281101 0 8.2910424865087452e-05 0.012077790358281101 0 -7.1460469076961773e-05 0.012084656672417832 0 4.9456030641822178e-05 0.012115067382601444 0 -0.00018017922910853245 0.010962547903620281 0 0.0003153481011643278 0.012552422460820617 0 0.0003153481011643278 0.012552422460820617 0 0.00033697923365513327 0.013158899119393252 0 -7.1460469076961773e-05 0.012084656672417832 0 -8.8021528409359972e-05 0.012195922003765826 0 4.9456030641822178e-05 0.012115067382601444 0 0.00065709639825985676 0.014133835104518917 0 0.00058864567823728778 0.014154020286455432 0 0.0006019315506405671 0.014111466700221993 0 0.00058864567823728778 0.014154020286455432 0 0.0006019315506405671 0.014111466700221993 0 0.00056154591796669538 0.01413366920860541 0 0.0003153481011643278 0.012552422460820617 0 0.00066111077228893052 0.014686132628700839 0 0.00065709639825985676 0.014133835104518917 0 0.0006019315506405671 0.014111466700221993 0 0.00068842254699222653 0.014066409629286285 0 -0.0003460231309711985 0.014792154020754579 0 -0.00061664822362052967 0.014668071596770724 0 -0.00050521239435253826 0.014924898959251576 0 0.00054012723275777177 0.014167990842641663 0 0.00052952612686721562 0.014133107354708817 0 0.00056154591796669538 0.01413366920860541 0 2.2035673972508965e-05 0.013490149251903333 0 3.9360395667208289e-05 0.014712273834638698 0 0.00054012723275777177 0.014167990842641663 0 0.00058864567823728778 0.014154020286455432 0 0.00056154591796669538 0.01413366920860541 0 0.00052952612686721562 0.014133107354708817 0 0.00056154591796669538 0.01413366920860541 0 0.00055982243795175827 0.014101826120189677 0 0.0006019315506405671 0.014111466700221993 0 0.00056154591796669538 0.01413366920860541 0 0.00055982243795175827 0.014101826120189677 0 0.00052952612686721562 0.014133107354708817 0 0.00055982243795175827 0.014101826120189677 0 0.00051661615530171248 0.014096924419207971 0 3.9360395667208289e-05 0.014712273834638698 0 2.9763712265244736e-05 0.014583433043776592 0 0.00055982243795175827 0.014101826120189677 0 0.00054919080091751944 0.014068301140361011 0 0.00051661615530171248 0.014096924419207971 0 0.00055982243795175827 0.014101826120189677 0 0.00054919080091751944 0.014068301140361011 0 0.00059958285607607958 0.014075704999035443 0 0.0005106592900828732 0.014245786808230812 0 0.0005804990674329061 0.014103276175971164 0 0.0005499551428198217 0.014213928578261129 0 0.00054875693034867491 0.014095137289261277 0 0.00057692774995234748 0.014102896521677805 0 0.00054875693034867491 0.014095137289261277 0 0.00027526857266754382 0.014623301125210136 0 0.0005106592900828732 0.014245786808230812 0 0.00044847856606145523 0.014273430457599543 0 0.00037326531987771108 0.014326224280941987 0 0.00054919080091751944 0.014068301140361011 0 0.00051661615530171248 0.014096924419207971 0 0.00050245388609180804 0.014064131168294818 0 0.0006019315506405671 0.014111466700221993 0 0.00059958285607607958 0.014075704999035443 0 0.00068842254699222653 0.014066409629286285 0 0.0006019315506405671 0.014111466700221993 0 0.00055982243795175827 0.014101826120189677 0 0.00059958285607607958 0.014075704999035443 0 0.0005106592900828732 0.014245786808230812 0 0.00059958285607607958 0.014075704999035443 0 0.0005804990674329061 0.014103276175971164 0 0.00059958285607607958 0.014075704999035443 0 0.00069320434818336072 0.013918707517882798 0 0.00068842254699222653 0.014066409629286285 0 0.00059958285607607958 0.014075704999035443 0 0.0005804990674329061 0.014103276175971164 0 0.00069320434818336072 0.013918707517882798 0 0.00069320434818336072 0.013918707517882798 0 0.00061628445416282295 0.01378358753660232 0 0.00071894909938581 0.013740607806988728 0 0.0005804990674329061 0.014103276175971164 0 0.00069320434818336072 0.013918707517882798 0 0.00061628445416282295 0.01378358753660232 0 0.0005804990674329061 0.014103276175971164 0 0.00063498707410270471 0.014178461632681293 0 0.0005499551428198217 0.014213928578261129 0 0.00061256185401146047 0.014049619285241169 0 0.00069320315173799357 0.014055800836487421 0 0.0005804990674329061 0.014103276175971164 0 0.00063498707410270471 0.014178461632681293 0 0.00076949404152732521 0.014171649392442802 0 0.00063498707410270471 0.014178461632681293 0 0.00073220296269280009 0.014068775281726554 0 0.00076949404152732521 0.014171649392442802 0 0.00061628445416282295 0.01378358753660232 0 0.00071894909938581 0.013740607806988728 0 0.00070251108425963579 0.013609375345639127 0 0.00069320315173799357 0.014055800836487421 0 0.00063347048327462834 0.01325027152680458 0 0.00073220296269280009 0.014068775281726554 0 0.00076949404152732521 0.014171649392442802 0 0.00097774449879230716 0.013988253685915828 0 0.00063498707410270471 0.014178461632681293 0 0.0005499551428198217 0.014213928578261129 0 0.00051970056064217722 0.014190766433614364 0 0.0005106592900828732 0.014245786808230812 0 0.00044847856606145523 0.014273430457599543 0 0.0005499551428198217 0.014213928578261129 0 0.00044847856606145523 0.014273430457599543 0 0.0005499551428198217 0.014213928578261129 0 0.00051970056064217722 0.014190766433614364 0 0.00063498707410270471 0.014178461632681293 0 0.00073220296269280009 0.014068775281726554 0 0.00051970056064217722 0.014190766433614364 0 0.00051970056064217722 0.014190766433614364 0 0.0003522940321951849 0.014327261876878866 0 0.000317388416826008 0.014091865885210629 0 0.00044847856606145523 0.014273430457599543 0 0.00051970056064217722 0.014190766433614364 0 0.0003522940321951849 0.014327261876878866 0 0.0003522940321951849 0.014327261876878866 0 0.00020491243815298155 0.014475850036905507 0 0.000317388416826008 0.014091865885210629 0 0.00026172155669633922 0.014500173073714142 0 0.00027526857266754382 0.014623301125210136 0 0.00044847856606145523 0.014273430457599543 0 0.0003522940321951849 0.014327261876878866 0 0.00037326531987771108 0.014326224280941987 0 0.0003522940321951849 0.014327261876878866 0 0.00020491243815298155 0.014475850036905507 0 0.00037326531987771108 0.014326224280941987 0 8.7717109971619051e-05 0.014938189569511574 0 0.00020491243815298155 0.014475850036905507 0 1.2723208186946725e-05 0.014835701970074248 0 8.7717109971619051e-05 0.014938189569511574 0 0.00020491243815298155 0.014475850036905507 0 0.00042948738953052599 0.01503442257996334 0 -4.8047664102068838e-05 0.015157203069266028 0 0.00027526857266754382 0.014623301125210136 0 0.00020491243815298155 0.014475850036905507 0 2.1052658822991084e-05 0.014681552745748942 0 1.2723208186946725e-05 0.014835701970074248 0 0.00020491243815298155 0.014475850036905507 0 2.1052658822991084e-05 0.014681552745748942 0 4.4595810023884613e-05 0.014508493693371977 0 2.1052658822991084e-05 0.014681552745748942 0 -3.0203309524748956e-05 0.014705501995500529 0 4.4595810023884613e-05 0.014508493693371977 0 -3.4035057818123324e-05 0.014786757198712693 0 -3.858819768540503e-05 0.014881432710093987 0 -3.0203309524748956e-05 0.014705501995500529 0 -3.4035057818123324e-05 0.014786757198712693 0 2.1052658822991084e-05 0.014681552745748942 0 -3.0203309524748956e-05 0.014705501995500529 0 -2.0614445243346095e-05 0.014787594103162861 0 -3.4035057818123324e-05 0.014786757198712693 0 -5.4428384184313209e-05 0.01484512982702796 0 -3.4035057818123324e-05 0.014786757198712693 0 -3.858819768540503e-05 0.014881432710093987 0 -5.4428384184313209e-05 0.01484512982702796 0 -2.0614445243346095e-05 0.014787594103162861 0 -3.4035057818123324e-05 0.014786757198712693 0 2.1052658822991084e-05 0.014681552745748942 0 -2.0614445243346095e-05 0.014787594103162861 0 2.1052658822991084e-05 0.014681552745748942 0 1.2723208186946725e-05 0.014835701970074248 0 -3.858819768540503e-05 0.014881432710093987 0 -3.9182011637535335e-08 0.01499971576414629 0 -8.2955260580446381e-08 0.014999696840488002 0 -3.858819768540503e-05 0.014881432710093987 0 -3.9182011637535335e-08 0.01499971576414629 0 -5.4428384184313209e-05 0.01484512982702796 0 -3.9025086607263398e-08 0.014999946501880867 0 -6.2102617081271589e-05 0.015057064746467307 0 -5.8293941088801562e-10 0.015000000963852525 0 -5.1222141964295309e-07 0.015000538445755262 0 -1.6334610132216622e-10 0.015000000985970553 0 -3.9182011637535335e-08 0.01499971576414629 0 -5.4428384184313209e-05 0.01484512982702796 0 -5.1475494017685054e-05 0.014838255199233484 0 8.7717109971619051e-05 0.014938189569511574 0 1.2723208186946725e-05 0.014835701970074248 0 -7.4137762308459316e-05 0.014865584105747008 0 -0.00017438999302390199 0.015348892658994237 0 -3.4853389288340895e-05 0.015386452234387246 0 -0.00010307405773553588 0.015247002982041877 0 -4.8047664102068838e-05 0.015157203069266028 0 -6.2102617081271589e-05 0.015057064746467307 0 -2.0614445243346095e-05 0.014787594103162861 0 1.2723208186946725e-05 0.014835701970074248 0 -5.4428384184313209e-05 0.01484512982702796 0 1.2723208186946725e-05 0.014835701970074248 0 -5.4428384184313209e-05 0.01484512982702796 0 -7.4137762308459316e-05 0.014865584105747008 0 -4.670284857168315e-05 0.014955255115906617 0 -6.2102617081271589e-05 0.015057064746467307 0 -3.4853389288340895e-05 0.015386452234387246 0 -0.00010307405773553588 0.015247002982041877 0 8.1070886745486072e-06 0.015191432304657684 0 -6.2102617081271589e-05 0.015057064746467307 0 6.0971743213725913e-06 0.01512351005995048 0 -5.1222141964295309e-07 0.015000538445755262 0 -1.6334610132216622e-10 0.015000000985970553 0 -1.2850588328222854e-07 0.015000383810650971 0 4.2904151882877051e-05 0.015001037091703947 0 8.1070886745486072e-06 0.015191432304657684 0 -8.2385430748398611e-05 0.015090445694276689 0 1.8785603869440407e-10 0.015000000119546041 0 -1.6334610132216622e-10 0.015000000985970553 0 -1.2850588328222854e-07 0.015000383810650971 0 1.9230510491242063e-05 0.014998888319331442 0 6.0971743213725913e-06 0.01512351005995048 0 -0.00010307405773553588 0.015247002982041877 0 -8.2385430748398611e-05 0.015090445694276689 0 -0.00020055392193308455 0.015172401211901219 0 -0.00010307405773553588 0.015247002982041877 0 8.1070886745486072e-06 0.015191432304657684 0 -8.2385430748398611e-05 0.015090445694276689 0 -0.00017797187863276287 0.014960938905292653 0 -0.00020055392193308455 0.015172401211901219 0 -0.00039943641631003221 0.01513399493338264 0 2.9763712265244736e-05 0.014583433043776592 0 0.00027526857266754382 0.014623301125210136 0 -0.00020055392193308455 0.015172401211901219 0 -0.00039943641631003221 0.01513399493338264 0 -0.0003190433162900679 0.015311651884670489 0 -0.00017438999302390199 0.015348892658994237 0 -0.00020055392193308455 0.015172401211901219 0 -0.0003190433162900679 0.015311651884670489 0 -0.00017438999302390199 0.015348892658994237 0 -0.00010307405773553588 0.015247002982041877 0 -0.00020055392193308455 0.015172401211901219 0 0.00021904997233890831 0.0083913212940246607 0 0.00026824713455322598 0.0085617630788347356 0 0.0002355975109456712 0.0084351123067903152 0 0.00021904997233890831 0.0083913212940246607 0 0.00022078453829268554 0.0085054631564681835 0 0.00026824713455322598 0.0085617630788347356 0 0.00022078453829268554 0.0085054631564681835 0 0.00026824713455322598 0.0085617630788347356 0 0.00024896583688782209 0.0086013210685315818 0 0.00026824713455322598 0.0085617630788347356 0 0.00025942711728689673 0.0086233950188404646 0 0.00029441025352760201 0.0086956656374675371 0 0.00025942711728689673 0.0086233950188404646 0 0.0002355975109456712 0.0084351123067903152 0 0.00017712047046950958 0.0082798717996521564 0 0.00026824713455322598 0.0085617630788347356 0 0.00025942711728689673 0.0086233950188404646 0 0.0002355975109456712 0.0084351123067903152 0 0.0002355975109456712 0.0084351123067903152 0 0.00019944614434494758 0.0082054335058020147 0 0.00017712047046950958 0.0082798717996521564 0 0.00021904997233890831 0.0083913212940246607 0 0.0002355975109456712 0.0084351123067903152 0 0.00019944614434494758 0.0082054335058020147 0 0.00019944614434494758 0.0082054335058020147 0 0.00017712047046950958 0.0082798717996521564 0 0.00010854534265211866 0.007729150924370958 0 1.8051083093622638e-07 0.0075778971794817811 0 0.00017712047046950958 0.0082798717996521564 0 0.00010854534265211866 0.007729150924370958 0 2.8846223929174822e-07 0.0083932721963733189 0 0.00017712047046950958 0.0082798717996521564 0 0.00016269972500510251 0.0088085968500161548 0 1.8051083093622638e-07 0.0075778971794817811 0 2.8846223929174822e-07 0.0083932721963733189 0 0.00017712047046950958 0.0082798717996521564 0 0.00025942711728689673 0.0086233950188404646 0 0.00017712047046950958 0.0082798717996521564 0 0.00016269972500510251 0.0088085968500161548 0 0.00016269972500510251 0.0088085968500161548 0 2.8413371901188036e-07 0.0092088477549694056 0 0.0001888121817326911 0.0091628675188199331 0 2.8846223929174822e-07 0.0083932721963733189 0 0.00016269972500510251 0.0088085968500161548 0 2.8413371901188036e-07 0.0092088477549694056 0 0.00026476468390006295 0.0088668069669170357 0 0.0001888121817326911 0.0091628675188199331 0 0.00016876602791386443 0.0089977257659810007 0 0.00016269972500510251 0.0088085968500161548 0 0.00026476468390006295 0.0088668069669170357 0 0.0001888121817326911 0.0091628675188199331 0 0.00025942711728689673 0.0086233950188404646 0 0.00016269972500510251 0.0088085968500161548 0 0.00026476468390006295 0.0088668069669170357 0 0.00025942711728689673 0.0086233950188404646 0 0.00026476468390006295 0.0088668069669170357 0 0.00029441025352760201 0.0086956656374675371 0 0.00010971119265593216 0.0094338724624345258 0 0.0001888121817326911 0.0091628675188199331 0 0.00016876602791386443 0.0089977257659810007 0 0.00041461408043086379 0.011663595277166794 0 0.00067718601483562294 0.011521467941966157 0 0.00010971119265593216 0.0094338724624345258 0 -2.9696019244373007e-05 0.009338467682366321 0 0.00016876602791386443 0.0089977257659810007 0 2.8413371901188036e-07 0.0092088477549694056 0 0.0001888121817326911 0.0091628675188199331 0 0.00010483211132719959 0.009581876283923197 0 0.00010971119265593216 0.0094338724624345258 0 0.0001888121817326911 0.0091628675188199331 0 0.00010483211132719959 0.009581876283923197 0 2.8413371901188036e-07 0.0092088477549694056 0 1.0499231916189518e-07 0.010024254720849939 0 0.00010483211132719959 0.009581876283923197 0 1.0499231916189518e-07 0.010024254720849939 0 0.00010483211132719959 0.009581876283923197 0 1.8068344182809092e-05 0.0099498093594405906 0 0.00010971119265593216 0.0094338724624345258 0 0.00010483211132719959 0.009581876283923197 0 1.8068344182809092e-05 0.0099498093594405906 0 1.0499231916189518e-07 0.010024254720849939 0 1.8068344182809092e-05 0.0099498093594405906 0 3.9735286524065859e-07 0.010840105886379615 0 -0.00035007312801424949 0.010453758169662451 0 1.8068344182809092e-05 0.0099498093594405906 0 3.9735286524065859e-07 0.010840105886379615 0 -0.00035007312801424949 0.010453758169662451 0 -0.00036986298461384151 0.0097790203243405937 0 1.8068344182809092e-05 0.0099498093594405906 0 -0.00036986298461384151 0.0097790203243405937 0 1.8068344182809092e-05 0.0099498093594405906 0 -2.9696019244373007e-05 0.009338467682366321 0 0.00010971119265593216 0.0094338724624345258 0 1.8068344182809092e-05 0.0099498093594405906 0 -2.9696019244373007e-05 0.009338467682366321 0 0.00064817907293992919 0.014219905364642038 0 0.00086698375666087793 0.014154253170606345 0 0.00068842254699222653 0.014066409629286285 0 0.0003153481011643278 0.012552422460820617 0 0.00041461408043086379 0.011663595277166794 0 0.00086698375666087793 0.014154253170606345 0 0.00068842254699222653 0.014066409629286285 0 0.00082033522992103235 0.013891414804834716 0 0.00069320434818336072 0.013918707517882798 0 0.00068842254699222653 0.014066409629286285 0 0.00082033522992103235 0.013891414804834716 0 0.00069320434818336072 0.013918707517882798 0 0.00082033522992103235 0.013891414804834716 0 0.00084736301745645345 0.013694285963704828 0 0.00069320434818336072 0.013918707517882798 0 0.00071894909938581 0.013740607806988728 0 0.00084736301745645345 0.013694285963704828 0 0.00066292560343459014 0.013382766778210084 0 0.00063347048327462834 0.01325027152680458 0 0.00071894909938581 0.013740607806988728 0 0.00084736301745645345 0.013694285963704828 0 0.00070251108425963579 0.013609375345639127 0 0.00053054415076787397 0.013112469888076511 0 0.00095470662755989027 0.013026005668389011 0 0.0006025663859