<?xml version="1.0"?>
<VTKFile type="UnstructuredGrid" version="0.1" byte_order="LittleEndian">
<UnstructuredGrid>
<Piece NumberOfPoints="31898" NumberOfCells="11152">
<Points>
<DataArray type="Float64" NumberOfComponents="3" format="ascii">
-0.5 -0.5 0 -0.47620991077874902 -0.44978878706170539 0 -0.49999999999999473 -0.42132396840504388 0 -0.5 -0.5 0 -0.47160970827802529 -0.4793630013852106 0 -0.47620991077874902 -0.44978878706170539 0 -0.5 -0.5 0 -0.47160970827802529 -0.4793630013852106 0 -0.44860394795025399 -0.5 0 -0.47160970827802529 -0.4793630013852106 0 -0.44860394795025399 -0.5 0 -0.4490820238307246 -0.45820516232899983 0 -0.44860394795025399 -0.5 0 -0.4490820238307246 -0.45820516232899983 0 -0.42881687682924802 -0.47781464288736519 0 -0.4490820238307246 -0.45820516232899983 0 -0.45555437223955858 -0.42914059360647611 0 -0.4490820238307246 -0.45820516232899983 0 -0.45555437223955858 -0.42914059360647611 0 -0.43867285131603428 -0.4271457417558665 0 -0.4490820238307246 -0.45820516232899983 0 -0.43867285131603428 -0.4271457417558665 0 -0.4263356171060747 -0.44269880333887462 0 -0.47160970827802529 -0.4793630013852106 0 -0.4490820238307246 -0.45820516232899983 0 -0.47620991077874902 -0.44978878706170539 0 -0.4490820238307246 -0.45820516232899983 0 -0.47620991077874902 -0.44978878706170539 0 -0.45555437223955858 -0.42914059360647611 0 -0.47620991077874902 -0.44978878706170539 0 -0.48101336032419229 -0.41069999664450008 0 -0.45555437223955858 -0.42914059360647611 0 -0.47620991077874902 -0.44978878706170539 0 -0.49999999999999473 -0.42132396840504388 0 -0.48101336032419229 -0.41069999664450008 0 -0.49999999999999473 -0.42132396840504388 0 -0.48101336032419229 -0.41069999664450008 0 -0.5 -0.393886241813306 0 -0.49999999999999473 -0.42132396840504388 0 -0.48101336032419229 -0.41069999664450008 0 -0.5 -0.393886241813306 0 -0.47854472220918332 -0.38978458738689759 0 -0.48422759779560409 -0.37130120630367158 0 -0.5 -0.393886241813306 0 -0.5 -0.36644851522156802 0 -0.48422759779560409 -0.37130120630367158 0 -0.48101336032419229 -0.41069999664450008 0 -0.5 -0.393886241813306 0 -0.47854472220918332 -0.38978458738689759 0 -0.48101336032419229 -0.41069999664450008 0 -0.47854472220918332 -0.38978458738689759 0 -0.46202672064839212 -0.40007602488395211 0 -0.48101336032419229 -0.41069999664450008 0 -0.46202672064839212 -0.40007602488395211 0 -0.47854472220918332 -0.38978458738689759 0 -0.46725442735267431 -0.37660061361585562 0 -0.46202672064839212 -0.40007602488395211 0 -0.47854472220918332 -0.38978458738689759 0 -0.46725442735267431 -0.37660061361585562 0 -0.48422759779560409 -0.37130120630367158 0 -0.46725442735267431 -0.37660061361585562 0 -0.46202672064839212 -0.40007602488395211 0 -0.46725442735267431 -0.37660061361585562 0 -0.45645674801697989 -0.38644133236760531 0 -0.46202672064839212 -0.40007602488395211 0 -0.46725442735267431 -0.37660061361585562 0 -0.45645674801697989 -0.38644133236760531 0 -0.4540003998136638 -0.37455519391687309 0 -0.45645674801697989 -0.38644133236760531 0 -0.46202672064839212 -0.40007602488395211 0 -0.44257020456291563 -0.38918913383950271 0 -0.46202672064839212 -0.40007602488395211 0 -0.44257020456291563 -0.38918913383950271 0 -0.44727608925983742 -0.41095911152778891 0 -0.46202672064839212 -0.40007602488395211 0 -0.44257020456291563 -0.38918913383950271 0 -0.44257020456291563 -0.38918913383950271 0 -0.44727608925983742 -0.41095911152778891 0 -0.43479358559901082 -0.4041454901736512 0 -0.44257020456291563 -0.38918913383950271 0 -0.4540003998136638 -0.37455519391687309 0 -0.44172858264042247 -0.37082207246888088 0 -0.45645674801697989 -0.38644133236760531 0 -0.44257020456291563 -0.38918913383950271 0 -0.4540003998136638 -0.37455519391687309 0 -0.46202672064839212 -0.40007602488395211 0 -0.45555437223955858 -0.42914059360647611 0 -0.44727608925983742 -0.41095911152778891 0 -0.46202672064839212 -0.40007602488395211 0 -0.45555437223955858 -0.42914059360647611 0 -0.48101336032419229 -0.41069999664450008 0 -0.46202672064839212 -0.40007602488395211 0 -0.45555437223955858 -0.42914059360647611 0 -0.44727608925983742 -0.41095911152778891 0 -0.43867285131603428 -0.4271457417558665 0 -0.43676601469929588 -0.41441201227470881 0 -0.44727608925983742 -0.41095911152778891 0 -0.43676601469929588 -0.41441201227470881 0 -0.43479358559901082 -0.4041454901736512 0 -0.45555437223955858 -0.42914059360647611 0 -0.44727608925983742 -0.41095911152778891 0 -0.43867285131603428 -0.4271457417558665 0 -0.43867285131603428 -0.4271457417558665 0 -0.42681803064840879 -0.42717069814352421 0 -0.4263356171060747 -0.44269880333887462 0 -0.42681803064840879 -0.42717069814352421 0 -0.41531815884496182 -0.42985383783075998 0 -0.4263356171060747 -0.44269880333887462 0 -0.42681803064840879 -0.42717069814352421 0 -0.42624289495594048 -0.42089725947505818 0 -0.42083332353326591 -0.42146747131641099 0 -0.42681803064840879 -0.42717069814352421 0 -0.43096994786351572 -0.41951492446283251 0 -0.42624289495594048 -0.42089725947505818 0 -0.43867285131603428 -0.4271457417558665 0 -0.42681803064840879 -0.42717069814352421 0 -0.43096994786351572 -0.41951492446283251 0 -0.43867285131603428 -0.4271457417558665 0 -0.43676601469929588 -0.41441201227470881 0 -0.43096994786351572 -0.41951492446283251 0 -0.43676601469929588 -0.41441201227470881 0 -0.43096994786351572 -0.41951492446283251 0 -0.42907264086257813 -0.41311715872526122 0 -0.43676601469929588 -0.41441201227470881 0 -0.42907264086257813 -0.41311715872526122 0 -0.43479358559901082 -0.4041454901736512 0 -0.42907264086257813 -0.41311715872526122 0 -0.43479358559901082 -0.4041454901736512 0 -0.42460885511582858 -0.40417321677700252 0 -0.42907264086257813 -0.41311715872526122 0 -0.41997834854398469 -0.41180534796019508 0 -0.42907264086257813 -0.41311715872526122 0 -0.42635027777857132 -0.41543594397746519 0 -0.41997834854398469 -0.41180534796019508 0 -0.42907264086257813 -0.41311715872526122 0 -0.41997834854398469 -0.41180534796019508 0 -0.42460885511582858 -0.40417321677700252 0 -0.42635027777857132 -0.41543594397746519 0 -0.41997834854398469 -0.41180534796019508 0 -0.42635027777857132 -0.41543594397746519 0 -0.42083332353326591 -0.42146747131641099 0 -0.41997834854398469 -0.41180534796019508 0 -0.43096994786351572 -0.41951492446283251 0 -0.42624289495594048 -0.42089725947505818 0 -0.42635027777857132 -0.41543594397746519 0 -0.43096994786351572 -0.41951492446283251 0 -0.42907264086257813 -0.41311715872526122 0 -0.42635027777857132 -0.41543594397746519 0 -0.42624289495594048 -0.42089725947505818 0 -0.42635027777857132 -0.41543594397746519 0 -0.42083332353326591 -0.42146747131641099 0 -0.42083332353326591 -0.42146747131641099 0 -0.41997834854398469 -0.41180534796019508 0 -0.40992282953163789 -0.42011435591993562 0 -0.41997834854398469 -0.41180534796019508 0 -0.39756877647335259 -0.40857286797681719 0 -0.41997834854398469 -0.41180534796019508 0 -0.40992282953163789 -0.42011435591993562 0 -0.39756877647335259 -0.40857286797681719 0 -0.40992282953163789 -0.42011435591993562 0 -0.41531815884496182 -0.42985383783075998 0 -0.39591554026262499 -0.42887225451549271 0 -0.41531815884496182 -0.42985383783075998 0 -0.39591554026262499 -0.42887225451549271 0 -0.41160927495564159 -0.44339431233754628 0 -0.42083332353326591 -0.42146747131641099 0 -0.40992282953163789 -0.42011435591993562 0 -0.41531815884496182 -0.42985383783075998 0 -0.42681803064840879 -0.42717069814352421 0 -0.42083332353326591 -0.42146747131641099 0 -0.41531815884496182 -0.42985383783075998 0 -0.44257020456291563 -0.38918913383950271 0 -0.42311368847744002 -0.37830224279505142 0 -0.42594061475171041 -0.39368797999533162 0 -0.44257020456291563 -0.38918913383950271 0 -0.42311368847744002 -0.37830224279505142 0 -0.44172858264042247 -0.37082207246888088 0 -0.44257020456291563 -0.38918913383950271 0 -0.42311368847744002 -0.37830224279505142 0 -0.42311368847744002 -0.37830224279505142 0 -0.42594061475171041 -0.39368797999533162 0 -0.416587075656149 -0.38785930376960043 0 -0.44257020456291563 -0.38918913383950271 0 -0.42594061475171041 -0.39368797999533162 0 -0.43479358559901082 -0.4041454901736512 0 -0.42594061475171041 -0.39368797999533162 0 -0.43479358559901082 -0.4041454901736512 0 -0.42460885511582858 -0.40417321677700252 0 -0.41997834854398469 -0.41180534796019508 0 -0.41325908582185972 -0.39811010703057192 0 -0.39770572831670092 -0.39911486077581648 0 -0.41997834854398469 -0.41180534796019508 0 -0.39770572831670092 -0.39911486077581648 0 -0.42594061475171041 -0.39368797999533162 0 -0.42460885511582858 -0.40417321677700252 0 -0.41325908582185972 -0.39811010703057192 0 -0.41997834854398469 -0.41180534796019508 0 -0.42460885511582858 -0.40417321677700252 0 -0.41325908582185972 -0.39811010703057192 0 -0.42594061475171041 -0.39368797999533162 0 -0.41325908582185972 -0.39811010703057192 0 -0.416587075656149 -0.38785930376960043 0 -0.41325908582185972 -0.39811010703057192 0 -0.416587075656149 -0.38785930376960043 0 -0.40403491357358612 -0.38133688525744702 0 -0.42311368847744002 -0.37830224279505142 0 -0.40403491357358612 -0.38133688525744702 0 -0.40365717239196519 -0.36741535175059892 0 -0.42311368847744002 -0.37830224279505142 0 -0.416587075656149 -0.38785930376960043 0 -0.40403491357358612 -0.38133688525744702 0 -0.40403491357358612 -0.38133688525744702 0 -0.39190790742475001 -0.38540387676521748 0 -0.39770572831670092 -0.39911486077581648 0 -0.40403491357358612 -0.38133688525744702 0 -0.39190790742475001 -0.38540387676521748 0 -0.3904578797192948 -0.37473938743617019 0 -0.41325908582185972 -0.39811010703057192 0 -0.40403491357358612 -0.38133688525744702 0 -0.39770572831670092 -0.39911486077581648 0 -0.39770572831670092 -0.39911486077581648 0 -0.37543310808941849 -0.38642437359143528 0 -0.39770572831670092 -0.39911486077581648 0 -0.37515920440272033 -0.40534038799344108 0 -0.37543310808941849 -0.38642437359143528 0 -0.39770572831670092 -0.39911486077581648 0 -0.37515920440272033 -0.40534038799344108 0 -0.39756877647335259 -0.40857286797681719
[...]
<PointData Scalars="" Vectors="displacement," Tensors="">
<DataArray type="Float64" Name="displacement" NumberOfComponents="3" format="ascii">
-1.7044208466308709e-06 -0.03499679755969496 0 -0.00017036281658070889 -0.032725369691815699 0 3.6161153396184258e-06 -0.029500847215183628 0 -1.7044208466308709e-06 -0.03499679755969496 0 -0.00015697245903177701 -0.034202445737124353 0 -0.00017036281658070889 -0.032725369691815699 0 -1.7044208466308709e-06 -0.03499679755969496 0 -0.00015697245903177701 -0.034202445737124353 0 2.1097605961182901e-09 -0.034999155666591945 0 -0.00015697245903177701 -0.034202445737124353 0 2.1097605961182901e-09 -0.034999155666591945 0 -8.5466867348456428e-05 -0.034206952355618339 0 2.1097605961182901e-09 -0.034999155666591945 0 -8.5466867348456428e-05 -0.034206952355618339 0 -6.8451891322755335e-05 -0.03477726284849255 0 -0.00027784674170271519 -0.032030740276828472 0 6.4718541960227807e-05 -0.031102110158921548 0 -8.5466867348456428e-05 -0.034206952355618339 0 0.00044253593636152486 -0.034149616195526387 0 0.00047822539489522723 -0.034394934797442323 0 -8.5466867348456428e-05 -0.034206952355618339 0 0.00047822539489522723 -0.034394934797442323 0 0.00023419052601773111 -0.034625710696039362 0 -0.00015697245903177701 -0.034202445737124353 0 -8.5466867348456428e-05 -0.034206952355618339 0 -0.00017036281658070889 -0.032725369691815699 0 -8.5466867348456428e-05 -0.034206952355618339 0 -0.00017036281658070889 -0.032725369691815699 0 0.00062663133658480137 -0.033388917498002803 0 -0.00017036281658070889 -0.032725369691815699 0 0.0013306907381822964 -0.031631124567948518 0 0.00062663133658480137 -0.033388917498002803 0 -0.00017036281658070889 -0.032725369691815699 0 3.6161153396184258e-06 -0.029500847215183628 0 0.0013306907381822964 -0.031631124567948518 0 1.9825719741547161e-06 -0.029489651958915584 0 0.00030163880224611726 -0.027192467630419045 0 -8.3682444928961151e-07 -0.027572046849613025 0 1.4046302549160095e-06 -0.029491436159869579 0 0.00059941431450804942 -0.028920868498610312 0 -8.3682444928961151e-07 -0.027572046849613025 0 -7.978843218986269e-05 -0.026487752484978245 0 -0.00016810368468979345 -0.025781073987819675 0 -8.3682444928961151e-07 -0.027572046849613025 0 -2.5556225698205066e-07 -0.0256511733255716 0 -0.00016810368468979345 -0.025781073987819675 0 0.00030163880224611726 -0.027192467630419045 0 -8.3682444928961151e-07 -0.027572046849613025 0 -7.978843218986269e-05 -0.026487752484978245 0 0.00030163880224611726 -0.027192467630419045 0 -7.978843218986269e-05 -0.026487752484978245 0 0.00013206306909350552 -0.026227646347917778 0 0.00059941431450804942 -0.028920868498610312 0 0.00095296521834988478 -0.027794168987612822 0 -7.978843218986269e-05 -0.026487752484978245 0 -0.00020713088816835717 -0.026002504695410211 0 0.00013206306909350552 -0.026227646347917778 0 -7.978843218986269e-05 -0.026487752484978245 0 -0.00020713088816835717 -0.026002504695410211 0 -0.00016810368468979345 -0.025781073987819675 0 0.00078157737104033592 -0.025265287722254084 0 0.00095296521834988478 -0.027794168987612822 0 0.001374427260751395 -0.020296648844722081 0 0.0012609145757113609 -0.020400195481204111 0 0.0011211909982466342 -0.020348292099977003 0 0.001374427260751395 -0.020296648844722081 0 0.0012609145757113609 -0.020400195481204111 0 0.0013684150461698206 -0.020413522900092004 0 0.0012609145757113609 -0.020400195481204111 0 0.0011211909982466342 -0.020348292099977003 0 0.0012254672908226405 -0.02053863354798453 0 0.00074558319918555029 -0.034161351691860388 0 0.0007734210943554868 -0.034347751658826836 0 0.00065456137364180511 -0.034288925037736992 0 0.00095296521834988478 -0.027794168987612822 0 0.00099671661876010579 -0.027466849369699623 0 0.0007734210943554868 -0.034347751658826836 0 0.00065456137364180511 -0.034288925037736992 0 0.00070623180552287018 -0.034395201576235893 0 0.0012254672908226405 -0.02053863354798453 0 0.0013684150461698206 -0.020413522900092004 0 0.0013987860338180076 -0.020541032898221265 0 0.0012609145757113609 -0.020400195481204111 0 0.0012254672908226405 -0.02053863354798453 0 0.0013684150461698206 -0.020413522900092004 0 0.00074558319918555029 -0.034161351691860388 0 0.00044253593636152486 -0.034149616195526387 0 0.00065456137364180511 -0.034288925037736992 0 0.00095296521834988478 -0.027794168987612822 0 6.4718541960227807e-05 -0.031102110158921548 0 0.0013306907381822964 -0.031631124567948518 0 0.0020557487347518276 -0.032812055434125187 0 0.00062663133658480137 -0.033388917498002803 0 0.00065456137364180511 -0.034288925037736992 0 0.00047822539489522723 -0.034394934797442323 0 0.00063397659121704197 -0.034397442963799291 0 0.00065456137364180511 -0.034288925037736992 0 0.00063397659121704197 -0.034397442963799291 0 0.00070623180552287018 -0.034395201576235893 0 0.00044253593636152486 -0.034149616195526387 0 0.00065456137364180511 -0.034288925037736992 0 0.00047822539489522723 -0.034394934797442323 0 0.00047822539489522723 -0.034394934797442323 0 0.00046438907225590336 -0.034571858390191473 0 0.00023419052601773111 -0.034625710696039362 0 0.00046438907225590336 -0.034571858390191473 0 0.00041928441091598328 -0.03475350092491352 0 0.00023419052601773111 -0.034625710696039362 0 0.00046438907225590336 -0.034571858390191473 0 0.00055499389104256996 -0.0345611158669238 0 0.00054395189057433692 -0.034654843281393871 0 0.00046438907225590336 -0.034571858390191473 0 0.00057655984745405586 -0.034478534715221811 0 0.00055499389104256996 -0.0345611158669238 0 0.00047822539489522723 -0.034394934797442323 0 0.00046438907225590336 -0.034571858390191473 0 0.00057655984745405586 -0.034478534715221811 0 0.00047822539489522723 -0.034394934797442323 0 0.00063397659121704197 -0.034397442963799291 0 0.00057655984745405586 -0.034478534715221811 0 0.00063397659121704197 -0.034397442963799291 0 0.00057655984745405586 -0.034478534715221811 0 0.00067940892345085056 -0.034462860411466088 0 0.00063397659121704197 -0.034397442963799291 0 0.00067940892345085056 -0.034462860411466088 0 0.00070623180552287018 -0.034395201576235893 0 0.00067940892345085056 -0.034462860411466088 0 0.00070623180552287018 -0.034395201576235893 0 0.00071155493123251361 -0.034417571927934612 0 0.0014503156974916638 -0.033732885815343533 0 0.001466625719751675 -0.033641372629842757 0 0.00067940892345085056 -0.034462860411466088 0 0.00063635181555687817 -0.03454030954897714 0 0.00073401266352680873 -0.034701627051876287 0 0.00067940892345085056 -0.034462860411466088 0 0.00072522248100603945 -0.034412955209399389 0 0.00071155493123251361 -0.034417571927934612 0 0.0014617776224282583 -0.033682858766666421 0 0.001466625719751675 -0.033641372629842757 0 0.00063635181555687817 -0.03454030954897714 0 0.00054395189057433692 -0.034654843281393871 0 0.00069850418846600958 -0.034666296531865842 0 0.00057655984745405586 -0.034478534715221811 0 0.00055499389104256996 -0.0345611158669238 0 0.00063635181555687817 -0.03454030954897714 0 0.00057655984745405586 -0.034478534715221811 0 0.00067940892345085056 -0.034462860411466088 0 0.00063635181555687817 -0.03454030954897714 0 0.00055499389104256996 -0.0345611158669238 0 0.00063635181555687817 -0.03454030954897714 0 0.00054395189057433692 -0.034654843281393871 0 0.00054395189057433692 -0.034654843281393871 0 0.00069850418846600958 -0.034666296531865842 0 0.00056486744743672963 -0.034826733781859694 0 0.001466625719751675 -0.033641372629842757 0 0.0012173459553267943 -0.033397401638187316 0 0.00069850418846600958 -0.034666296531865842 0 0.00056486744743672963 -0.034826733781859694 0 0.00073427307815707708 -0.035009461244072539 0 0.00056486744743672963 -0.034826733781859694 0 0.00041928441091598328 -0.03475350092491352 0 0.00043577092725423426 -0.035034648946336767 0 0.00041928441091598328 -0.03475350092491352 0 0.00043577092725423426 -0.035034648946336767 0 0.00022520319268504733 -0.034820652097053463 0 0.00054395189057433692 -0.034654843281393871 0 0.00056486744743672963 -0.034826733781859694 0 0.00041928441091598328 -0.03475350092491352 0 0.00046438907225590336 -0.034571858390191473 0 0.00054395189057433692 -0.034654843281393871 0 0.00041928441091598328 -0.03475350092491352 0 0.0007734210943554868 -0.034347751658826836 0 0.00070114341496949311 -0.034389491986199484 0 0.00072463518811934633 -0.034398646134830652 0 0.0012254672908226405 -0.02053863354798453 0 0.0013204401762685661 -0.020740831309510762 0 0.0013987860338180076 -0.020541032898221265 0 0.00099671661876010579 -0.027466849369699623 0 0.0010911764317514073 -0.027240077711195222 0 0.00070114341496949311 -0.034389491986199484 0 0.00072463518811934633 -0.034398646134830652 0 0.00070894412054722615 -0.034377693481306273 0 0.0007734210943554868 -0.034347751658826836 0 0.00072463518811934633 -0.034398646134830652 0 0.00070623180552287018 -0.034395201576235893 0 0.00072463518811934633 -0.034398646134830652 0 0.00070623180552287018 -0.034395201576235893 0 0.00071155493123251361 -0.034417571927934612 0 0.00072522248100603945 -0.034412955209399389 0 0.00072429728965140393 -0.034378390941708838 0 0.00074748635650181213 -0.034314465372078114 0 0.001466625719751675 -0.033641372629842757 0 0.0016122816163264392 -0.032611187545810126 0 0.00072463518811934633 -0.034398646134830652 0 0.00071155493123251361 -0.034417571927934612 0 0.00072429728965140393 -0.034378390941708838 0 0.00072522248100603945 -0.034412955209399389 0 0.00071155493123251361 -0.034417571927934612 0 0.00072429728965140393 -0.034378390941708838 0 0.00072463518811934633 -0.034398646134830652 0 0.00072429728965140393 -0.034378390941708838 0 0.00070894412054722615 -0.034377693481306273 0 0.00072429728965140393 -0.034378390941708838 0 0.00070894412054722615 -0.034377693481306273 0 0.00068244722793607646 -0.034337303880819507 0 0.00070114341496949311 -0.034389491986199484 0 0.00068244722793607646 -0.034337303880819507 0 0.00064761778482964145 -0.034329993977767849 0 0.00070114341496949311 -0.034389491986199484 0 0.00070894412054722615 -0.034377693481306273 0 0.00068244722793607646 -0.034337303880819507 0 0.00068244722793607646 -0.034337303880819507 0 0.0006928693253746886 -0.034271099166828051 0 0.00074748635650181213 -0.034314465372078114 0 0.00068244722793607646 -0.034337303880819507 0 0.0006928693253746886 -0.034271099166828051 0 0.00063442331811801344 -0.034255566841116622 0 0.00072429728965140393 -0.034378390941708838 0 0.00068244722793607646 -0.034337303880819507 0 0.00074748635650181213 -0.034314465372078114 0 0.0016122816163264392 -0.032611187545810126 0 0.0015260491606324754 -0.030226663283554289 0 0.0014804713413142979 -0.032435361561049883 0 0.0017376136598953771 -0.031502273504457418 0 0.00095639448788215618 -0.031512291564582198 0 0.0014804713413142979 -0.032435361561049883 0 0.0017376136598953771 -0.031502273504457418 0 0.0018715239670007225 -0.032430133282475924 0 0.00084532681561739717 -0.032424421215372971 0 0.0015260491606324754 -0.030226663283554289 0 0.00070306405104989336 -0.034170171525351914 0 0.00063442331811801344 -0.034255566841116622 0 0.00060034233328895863 -0.034160167123250249 0 0.0006928693253746886 -0.034271099166828051 0 0.00070306405104989336 -0.034170171525351914 0 0.00063442331811801344 -0.034255566841116622 0 0.0015260491606324754 -0.030226663283554289 0 0.0011863363767948753 -0.028255433032264105 0 0.0006928693253746886 -0.034271099166828051 0 0.00074748635650181213 -0.034314465372078114 0 0.00070306405104989336 -0.034170171525351914 0 0.0020047674643732462 -0.033358852290096809 0 0.0014804713413142979 -0.032435361561049883 0 0.0018715239670007225 -0.032430133282475924 0 0.00056486744743672963 -0.034826733781859694 0 0.00043577092725423426 -0.035034648946336767 0 0.00073427307815707708 -0.035009461244072539 0 0.0007783317607495333 -0.035330158885027531 0 0.00043577092725423426 -0.035034648946336767 0 0.00073427307815707708 -0.035009461244072539 0 0.00084532681561739717 -0.032424421215372971 0 0.0012173459553267943 -0.033397401638187316 0 0.0007783317607495333 -0.035330158885027531 0 0.00043577092725423426 -0.035034648946336767 0 0.00034210108635495751 -0.035335857829787258 0 0.00043577092725423426 -0.035034648946336767 0 0.00018469041808908746 -0.035077115788925785 0 0.00034210108635495751 -0.035335857829787258 0 0.00018469041808908746 -0.035077115788925785 0 -8.2182743413960362e-05 -0.035339794702320571 0 0.00034210108635495751 -0.035335857829787258 0 0.00043577092725423426 -0.035034648946336767 0 0.00018469041808908746 -0.035077115788925785 0 0.00022520319268504733 -0.034820652097053463 0 0.00018469041808908746 -0.035077115788925785 0 3.1660296511832474e-05 -0.034925535299664426 0 0.00022520319268504733 -0.034820652097053463 0 5.374075928188833e-05 -0.034901454725071362 0 -1.9806186517124506e-05 -0.034962429202447451 0 -1.9257225375079776e-05 -0.034861488293869064 0 2.6246188049159631e-06 -0.034997364267945488 0 2.1589276579219463e-06 -0.034998791221978437 0 6.1704713969601511e-07 -0.034998776451521309 0 6.1970071057330489e-05 -0.034930236483741453 0 8.8975968937615154e-06 -0.034976221192794733 0 6.1970071057330489e-05 -0.034930236483741453 0 6.206257564218514e-05 -0.034929763156315768 0 6.1970071057330489e-05 -0.034930236483741453 0 6.5700406104270029e-05 -0.03490150061104641 0 0.00018469041808908746 -0.035077115788925785 0 3.1660296511832474e-05 -0.034925535299664426 0 -2.5283221443878434e-05 -0.035131749083126884 0 0.00018469041808908746 -0.035077115788925785 0 -2.5283221443878434e-05 -0.035131749083126884 0 -8.2182743413960362e-05 -0.035339794702320571 0 6.5700406104270029e-05 -0.03490150061104641 0 0.00011589463310942671 -0.034725179663647479 0 2.1589276579219463e-06 -0.034998791221978437 0 1.1778281393036563e-06 -0.034999226926793706 0 1.7541235149566812e-06 -0.034999891435749435 0 1.1778281393036563e-06 -0.034999226926793706 0 6.1704713969601511e-07 -0.034998776451521309 0 5.0723703268679407e-07 -0.034999839258532735 0 6.1704713969601511e-07 -0.034998776451521309 0 3.3442169615473705e-07 -0.034999838531464517 0 5.0723703268679407e-07 -0.034999839258532735 0 1.1778281393036563e-06 -0.034999226926793706 0 5.0723703268679407e-07 -0.034999839258532735 0 1.7541235149566812e-06 -0.034999891435749435 0 2.1589276579219463e-06 -0.034998791221978437 0 1.1778281393036563e-06 -0.034999226926793706 0 6.1704713969601511e-07 -0.034998776451521309 0 -1.369403322659795e-08 -0.034999967369861974 0 8.8975968937615154e-06 -0.034976221192794733 0 -5.7904938222331302e-10 -0.034999998891690275 0 6.1704713969601511e-07 -0.034998776451521309 0 3.3442169615473705e-07 -0.034999838531464517 0 5.6922686339301459e-08 -0.034999984532537803 0 -1.9806186517124506e-05 -0.034962429202447451 0 -1.3881740232872925e-07 -0.034999908281963532 0 -1.9806186517124506e-05 -0.034962429202447451 0 -1.9257225375079776e-05 -0.034861488293869064 0 -1.3881740232872925e-07 -0.034999908281963532 0 -1.9257225375079776e-05 -0.034861488293869064 0 -1.3881740232872925e-07 -0.034999908281963532 0 -6.8451891322755335e-05 -0.03477726284849255 0 2.1097605961182901e-09 -0.034999155666591945 0 -1.3881740232872925e-07 -0.034999908281963532 0 -6.8451891322755335e-05 -0.03477726284849255 0 -1.9257225375079776e-05 -0.034861488293869064 0 -6.8451891322755335e-05 -0.03477726284849255 0 7.2692131460621441e-06 -0.034679988148145588 0 -8.5466867348456428e-05 -0.034206952355618339 0 -6.8451891322755335e-05 -0.03477726284849255 0 7.2692131460621441e-06 -0.034679988148145588 0 -8.5466867348456428e-05 -0.034206952355618339 0 7.2692131460621441e-06 -0.034679988148145588 0 0.00023419052601773111 -0.034625710696039362 0 7.2692131460621441e-06 -0.034679988148145588 0 0.00023419052601773111 -0.034625710696039362 0 8.9911223318414718e-05 -0.034779379176046461 0 0.00023419052601773111 -0.034625710696039362 0 0.00022520319268504733 -0.034820652097053463 0 8.9911223318414718e-05 -0.034779379176046461 0 0.00041928441091598328 -0.03475350092491352 0 0.00023419052601773111 -0.034625710696039362 0 0.00022520319268504733 -0.034820652097053463 0 5.3483532126713803e-05 -0.03491594097172443 0 0.00022520319268504733 -0.034820652097053463 0 6.1828606418649716e-05 -0.034884787168129046 0 0.00022520319268504733 -0.034820652097053463 0 6.1828606418649716e-05 -0.034884787168129046 0 8.9911223318414718e-05 -0.034779379176046461 0 6.1970071057330489e-05 -0.034930236483741453 0 9.685201795662329e-05 -0.03490933617697782 0 -1.9257225375079776e-05 -0.034861488293869064 0 6.1828606418649716e-05 -0.034884787168129046 0 8.9911223318414718e-05 -0.034779379176046461 0 5.374075928188833e-05 -0.034901454725071362 0 -1.9257225375079776e-05 -0.034861488293869064 0 6.1828606418649716e-05 -0.034884787168129046 0 -1.9257225375079776e-05 -0.034861488293869064 0 7.2692131460621441e-06 -0.034679988148145588 0 8.9911223318414718e-05 -0.034779379176046461 0 0.0012569371137322967 -0.017951350642960225 0 0.0018026298113295706 -0.016906928362610957 0 0.00048621141795210832 -0.017599857886053418 0 0.00058561753461355533 -0.017049001443034943 0 0.00032417664881147641 -0.017423577920951255 0 -0.0001306099323881424 -0.019560063880955235 0 0.00012032911069481373 -0.019525782742164766 0 4.8978827151756571e-05 -0.019633819067211108 0 -0.0001306099323881424 -0.019560063880955235 0 -8.2234872104384205e-05 -0.019575374429190665 0 4.8978827151756571e-05 -0.019633819067211108 0 -0.0001306099323881424 -0.019560063880955235 0 -6.802014489664323e-05 -0.019483953376007113 0 -8.2234872104384205e-05 -0.019575374429190665 0 -0.0001306099323881424 -0.019560063880955235 0 -0.00012385275725738471 -0.019305445900139492 0 -0.00018477547034038383 -0.019645771278883201 0 -0.0001306099323881424 -0.019560063880955235 0 -0.00012385275725738471 -0.019305445900139492 0 0.00012032911069481373 -0.019525782742164766 0 0.0012569371137322967 -0.017951350642960225 0 0.0010772851899959869 -0.018144347941074713 0 -0.00012385275725738471 -0.019305445900139492 0 0.00012032911069481373 -0.019525782742164766 0 0.00012797729415301877 -0.01851139136168552 0 0.00048621141795210832 -0.017599857886053418 0 0.00012797729415301877 -0.01851139136168552 0 4.7338154529992128e-05 -0.017845167818827654 0 0.00012797729415301877 -0.01851139136168552 0 -4.3776230592936579e-07 -0.017968598248960369 0 -0.00012897289192726819 -0.019265905228251973 0 0.00012797729415301877 -0.01851139136168552 0 -4.3776230592936579e-07 -0.017968598248960369 0 -2.6307827410582311e-05 -0.017571105746662975 0 -4.3776230592936579e-07 -0.017968598248960369 0 -0.00012897289192726819 -0.019265905228251973 0 -3.6573272863378497e-07 -0.019889469796204644 0 -0.00012385275725738471 -0.019305445900139492 0 0.00012797729415301877 -0.01851139136168552 0 -0.00012897289192726819 -0.019265905228251973 0 -0.00012385275725738471 -0.019305445900139492 0 -0.00012897289192726819 -0.019265905228251973 0 -0.00018477547034038383 -0.019645771278883201 0 -0.00018477547034038383 -0.019645771278883201 0 -7.6008947272041997e-05 -0.020267438951158161 0 -1.9602511027999966e-05 -0.020132519231893829 0 -0.00012897289192726819 -0.019265905228251973 0 -0.00018477547034038383 -0.019645771278883201 0 -7.6008947272041997e-05 -0.020267438951158161 0 -3.6573272863378497e-07 -0.019889469796204644 0 -7.6008947272041997e-05 -0.020267438951158161 0 4.6620718869778061e-07 -0.021809978231857829 0 -0.00012897289192726819 -0.019265905228251973 0 -3.6573272863378497e-07 -0.019889469796204644 0 -7.6008947272041997e-05 -0.020267438951158161 0 -7.6008947272041997e-05 -0.020267438951158161 0 4.6620718869778061e-07 -0.021809978231857829 0 0.00015179173966311607 -0.021042206369346148 0 0.00015179173966311607 -0.021042206369346148 0 -1.9602511027999966e-05 -0.020132519231893829 0 0.00056706873771513941 -0.020363480305318662 0 -7.6008947272041997e-05 -0.020267438951158161 0 0.00015179173966311607 -0.021042206369346148 0 -1.9602511027999966e-05 -0.020132519231893829 0 -1.9602511027999966e-05 -0.020132519231893829 0 0.00027049977755340111 -0.019885682823898874 0 0.00056706873771513941 -0.020363480305318662 0 0.00027049977755340111 -0.019885682823898874 0 0.00019553363456896832 -0.01955198499302549 