<?xml version="1.0"?>
<VTKFile type="UnstructuredGrid" version="0.1" byte_order="LittleEndian">
<UnstructuredGrid>
<Piece NumberOfPoints="31898" NumberOfCells="11152">
<Points>
<DataArray type="Float64" NumberOfComponents="3" format="ascii">
-0.5 -0.5 0 -0.47620991077874902 -0.44978878706170539 0 -0.49999999999999473 -0.42132396840504388 0 -0.5 -0.5 0 -0.47160970827802529 -0.4793630013852106 0 -0.47620991077874902 -0.44978878706170539 0 -0.5 -0.5 0 -0.47160970827802529 -0.4793630013852106 0 -0.44860394795025399 -0.5 0 -0.47160970827802529 -0.4793630013852106 0 -0.44860394795025399 -0.5 0 -0.4490820238307246 -0.45820516232899983 0 -0.44860394795025399 -0.5 0 -0.4490820238307246 -0.45820516232899983 0 -0.42881687682924802 -0.47781464288736519 0 -0.4490820238307246 -0.45820516232899983 0 -0.45555437223955858 -0.42914059360647611 0 -0.4490820238307246 -0.45820516232899983 0 -0.45555437223955858 -0.42914059360647611 0 -0.43867285131603428 -0.4271457417558665 0 -0.4490820238307246 -0.45820516232899983 0 -0.43867285131603428 -0.4271457417558665 0 -0.4263356171060747 -0.44269880333887462 0 -0.47160970827802529 -0.4793630013852106 0 -0.4490820238307246 -0.45820516232899983 0 -0.47620991077874902 -0.44978878706170539 0 -0.4490820238307246 -0.45820516232899983 0 -0.47620991077874902 -0.44978878706170539 0 -0.45555437223955858 -0.42914059360647611 0 -0.47620991077874902 -0.44978878706170539 0 -0.48101336032419229 -0.41069999664450008 0 -0.45555437223955858 -0.42914059360647611 0 -0.47620991077874902 -0.44978878706170539 0 -0.49999999999999473 -0.42132396840504388 0 -0.48101336032419229 -0.41069999664450008 0 -0.49999999999999473 -0.42132396840504388 0 -0.48101336032419229 -0.41069999664450008 0 -0.5 -0.393886241813306 0 -0.49999999999999473 -0.42132396840504388 0 -0.48101336032419229 -0.41069999664450008 0 -0.5 -0.393886241813306 0 -0.47854472220918332 -0.38978458738689759 0 -0.48422759779560409 -0.37130120630367158 0 -0.5 -0.393886241813306 0 -0.5 -0.36644851522156802 0 -0.48422759779560409 -0.37130120630367158 0 -0.48101336032419229 -0.41069999664450008 0 -0.5 -0.393886241813306 0 -0.47854472220918332 -0.38978458738689759 0 -0.48101336032419229 -0.41069999664450008 0 -0.47854472220918332 -0.38978458738689759 0 -0.46202672064839212 -0.40007602488395211 0 -0.48101336032419229 -0.41069999664450008 0 -0.46202672064839212 -0.40007602488395211 0 -0.47854472220918332 -0.38978458738689759 0 -0.46725442735267431 -0.37660061361585562 0 -0.46202672064839212 -0.40007602488395211 0 -0.47854472220918332 -0.38978458738689759 0 -0.46725442735267431 -0.37660061361585562 0 -0.48422759779560409 -0.37130120630367158 0 -0.46725442735267431 -0.37660061361585562 0 -0.46202672064839212 -0.40007602488395211 0 -0.46725442735267431 -0.37660061361585562 0 -0.45645674801697989 -0.38644133236760531 0 -0.46202672064839212 -0.40007602488395211 0 -0.46725442735267431 -0.37660061361585562 0 -0.45645674801697989 -0.38644133236760531 0 -0.4540003998136638 -0.37455519391687309 0 -0.45645674801697989 -0.38644133236760531 0 -0.46202672064839212 -0.40007602488395211 0 -0.44257020456291563 -0.38918913383950271 0 -0.46202672064839212 -0.40007602488395211 0 -0.44257020456291563 -0.38918913383950271 0 -0.44727608925983742 -0.41095911152778891 0 -0.46202672064839212 -0.40007602488395211 0 -0.44257020456291563 -0.38918913383950271 0 -0.44257020456291563 -0.38918913383950271 0 -0.44727608925983742 -0.41095911152778891 0 -0.43479358559901082 -0.4041454901736512 0 -0.44257020456291563 -0.38918913383950271 0 -0.4540003998136638 -0.37455519391687309 0 -0.44172858264042247 -0.37082207246888088 0 -0.45645674801697989 -0.38644133236760531 0 -0.44257020456291563 -0.38918913383950271 0 -0.4540003998136638 -0.37455519391687309 0 -0.46202672064839212 -0.40007602488395211 0 -0.45555437223955858 -0.42914059360647611 0 -0.44727608925983742 -0.41095911152778891 0 -0.46202672064839212 -0.40007602488395211 0 -0.45555437223955858 -0.42914059360647611 0 -0.48101336032419229 -0.41069999664450008 0 -0.46202672064839212 -0.40007602488395211 0 -0.45555437223955858 -0.42914059360647611 0 -0.44727608925983742 -0.41095911152778891 0 -0.43867285131603428 -0.4271457417558665 0 -0.43676601469929588 -0.41441201227470881 0 -0.44727608925983742 -0.41095911152778891 0 -0.43676601469929588 -0.41441201227470881 0 -0.43479358559901082 -0.4041454901736512 0 -0.45555437223955858 -0.42914059360647611 0 -0.44727608925983742 -0.41095911152778891 0 -0.43867285131603428 -0.4271457417558665 0 -0.43867285131603428 -0.4271457417558665 0 -0.42681803064840879 -0.42717069814352421 0 -0.4263356171060747 -0.44269880333887462 0 -0.42681803064840879 -0.42717069814352421 0 -0.41531815884496182 -0.42985383783075998 0 -0.4263356171060747 -0.44269880333887462 0 -0.42681803064840879 -0.42717069814352421 0 -0.42624289495594048 -0.42089725947505818 0 -0.42083332353326591 -0.42146747131641099 0 -0.42681803064840879 -0.42717069814352421 0 -0.43096994786351572 -0.41951492446283251 0 -0.42624289495594048 -0.42089725947505818 0 -0.43867285131603428 -0.4271457417558665 0 -0.42681803064840879 -0.42717069814352421 0 -0.43096994786351572 -0.41951492446283251 0 -0.43867285131603428 -0.4271457417558665 0 -0.43676601469929588 -0.41441201227470881 0 -0.43096994786351572 -0.41951492446283251 0 -0.43676601469929588 -0.41441201227470881 0 -0.43096994786351572 -0.41951492446283251 0 -0.42907264086257813 -0.41311715872526122 0 -0.43676601469929588 -0.41441201227470881 0 -0.42907264086257813 -0.41311715872526122 0 -0.43479358559901082 -0.4041454901736512 0 -0.42907264086257813 -0.41311715872526122 0 -0.43479358559901082 -0.4041454901736512 0 -0.42460885511582858 -0.40417321677700252 0 -0.42907264086257813 -0.41311715872526122 0 -0.41997834854398469 -0.41180534796019508 0 -0.42907264086257813 -0.41311715872526122 0 -0.42635027777857132 -0.41543594397746519 0 -0.41997834854398469 -0.41180534796019508 0 -0.42907264086257813 -0.41311715872526122 0 -0.41997834854398469 -0.41180534796019508 0 -0.42460885511582858 -0.40417321677700252 0 -0.42635027777857132 -0.41543594397746519 0 -0.41997834854398469 -0.41180534796019508 0 -0.42635027777857132 -0.41543594397746519 0 -0.42083332353326591 -0.42146747131641099 0 -0.41997834854398469 -0.41180534796019508 0 -0.43096994786351572 -0.41951492446283251 0 -0.42624289495594048 -0.42089725947505818 0 -0.42635027777857132 -0.41543594397746519 0 -0.43096994786351572 -0.41951492446283251 0 -0.42907264086257813 -0.41311715872526122 0 -0.42635027777857132 -0.41543594397746519 0 -0.42624289495594048 -0.42089725947505818 0 -0.42635027777857132 -0.41543594397746519 0 -0.42083332353326591 -0.42146747131641099 0 -0.42083332353326591 -0.42146747131641099 0 -0.41997834854398469 -0.41180534796019508 0 -0.40992282953163789 -0.42011435591993562 0 -0.41997834854398469 -0.41180534796019508 0 -0.39756877647335259 -0.40857286797681719 0 -0.41997834854398469 -0.41180534796019508 0 -0.40992282953163789 -0.42011435591993562 0 -0.39756877647335259 -0.40857286797681719 0 -0.40992282953163789 -0.42011435591993562 0 -0.41531815884496182 -0.42985383783075998 0 -0.39591554026262499 -0.42887225451549271 0 -0.41531815884496182 -0.42985383783075998 0 -0.39591554026262499 -0.42887225451549271 0 -0.41160927495564159 -0.44339431233754628 0 -0.42083332353326591 -0.42146747131641099 0 -0.40992282953163789 -0.42011435591993562 0 -0.41531815884496182 -0.42985383783075998 0 -0.42681803064840879 -0.42717069814352421 0 -0.42083332353326591 -0.42146747131641099 0 -0.41531815884496182 -0.42985383783075998 0 -0.44257020456291563 -0.38918913383950271 0 -0.42311368847744002 -0.37830224279505142 0 -0.42594061475171041 -0.39368797999533162 0 -0.44257020456291563 -0.38918913383950271 0 -0.42311368847744002 -0.37830224279505142 0 -0.44172858264042247 -0.37082207246888088 0 -0.44257020456291563 -0.38918913383950271 0 -0.42311368847744002 -0.37830224279505142 0 -0.42311368847744002 -0.37830224279505142 0 -0.42594061475171041 -0.39368797999533162 0 -0.416587075656149 -0.38785930376960043 0 -0.44257020456291563 -0.38918913383950271 0 -0.42594061475171041 -0.39368797999533162 0 -0.43479358559901082 -0.4041454901736512 0 -0.42594061475171041 -0.39368797999533162 0 -0.43479358559901082 -0.4041454901736512 0 -0.42460885511582858 -0.40417321677700252 0 -0.41997834854398469 -0.41180534796019508 0 -0.41325908582185972 -0.39811010703057192 0 -0.39770572831670092 -0.39911486077581648 0 -0.41997834854398469 -0.41180534796019508 0 -0.39770572831670092 -0.39911486077581648 0 -0.42594061475171041 -0.39368797999533162 0 -0.42460885511582858 -0.40417321677700252 0 -0.41325908582185972 -0.39811010703057192 0 -0.41997834854398469 -0.41180534796019508 0 -0.42460885511582858 -0.40417321677700252 0 -0.41325908582185972 -0.39811010703057192 0 -0.42594061475171041 -0.39368797999533162 0 -0.41325908582185972 -0.39811010703057192 0 -0.416587075656149 -0.38785930376960043 0 -0.41325908582185972 -0.39811010703057192 0 -0.416587075656149 -0.38785930376960043 0 -0.40403491357358612 -0.38133688525744702 0 -0.42311368847744002 -0.37830224279505142 0 -0.40403491357358612 -0.38133688525744702 0 -0.40365717239196519 -0.36741535175059892 0 -0.42311368847744002 -0.37830224279505142 0 -0.416587075656149 -0.38785930376960043 0 -0.40403491357358612 -0.38133688525744702 0 -0.40403491357358612 -0.38133688525744702 0 -0.39190790742475001 -0.38540387676521748 0 -0.39770572831670092 -0.39911486077581648 0 -0.40403491357358612 -0.38133688525744702 0 -0.39190790742475001 -0.38540387676521748 0 -0.3904578797192948 -0.37473938743617019 0 -0.41325908582185972 -0.39811010703057192 0 -0.40403491357358612 -0.38133688525744702 0 -0.39770572831670092 -0.39911486077581648 0 -0.39770572831670092 -0.39911486077581648 0 -0.37543310808941849 -0.38642437359143528 0 -0.39770572831670092 -0.39911486077581648 0 -0.37515920440272033 -0.40534038799344108 0 -0.37543310808941849 -0.38642437359143528 0 -0.39770572831670092 -0.39911486077581648 0 -0.37515920440272033 -0.40534038799344108 0 -0.39756877647335259 -0.40857286797681719
[...]
<PointData Scalars="" Vectors="displacement," Tensors="">
<DataArray type="Float64" Name="displacement" NumberOfComponents="3" format="ascii">
-0.034997523110047932 -0.03499804256402033 0 -0.032641006667603396 -0.034394959651465759 0 -0.029503240535278863 -0.034995363663656187 0 -0.034997523110047932 -0.03499804256402033 0 -0.034458795195357786 -0.033742853183905602 0 -0.032641006667603396 -0.034394959651465759 0 -0.034997523110047932 -0.03499804256402033 0 -0.034458795195357786 -0.033742853183905602 0 -0.034998041558806418 -0.031405365693813768 0 -0.034458795195357786 -0.033742853183905602 0 -0.034998041558806418 -0.031405365693813768 0 -0.03469765500864086 -0.033312896584753268 0 -0.034998041558806418 -0.031405365693813768 0 -0.03469765500864086 -0.033312896584753268 0 -0.035131076216540449 -0.03075577297417878 0 -0.034102187994484029 -0.034289727389890952 0 -0.034043813069774324 -0.034579580015102307 0 -0.03469765500864086 -0.033312896584753268 0 -0.038016011276908374 -0.033836504611916916 0 -0.038267634050473877 -0.032125823466623203 0 -0.03469765500864086 -0.033312896584753268 0 -0.038267634050473877 -0.032125823466623203 0 -0.036837196627806705 -0.030858808323950583 0 -0.034458795195357786 -0.033742853183905602 0 -0.03469765500864086 -0.033312896584753268 0 -0.032641006667603396 -0.034394959651465759 0 -0.03469765500864086 -0.033312896584753268 0 -0.032641006667603396 -0.034394959651465759 0 -0.03183493697323779 -0.03502947673820464 0 -0.032641006667603396 -0.034394959651465759 0 -0.03034738171454204 -0.034646163598175753 0 -0.03183493697323779 -0.03502947673820464 0 -0.032641006667603396 -0.034394959651465759 0 -0.029503240535278863 -0.034995363663656187 0 -0.03034738171454204 -0.034646163598175753 0 -0.029492672783941253 -0.034999997703768417 0 -0.028748683146832866 -0.036324155512145143 0 -0.027572039902040213 -0.034999996945891197 0 -0.029493947852160651 -0.035000586319461117 0 -0.030085059193986668 -0.035230977598470853 0 -0.027572039902040213 -0.034999996945891197 0 -0.027286647815920131 -0.036496132962947785 0 -0.025992472277621494 -0.036099986377081422 0 -0.027572039902040213 -0.034999996945891197 0 -0.025651397915428423 -0.034999995913570794 0 -0.025992472277621494 -0.036099986377081422 0 -0.028748683146832866 -0.036324155512145143 0 -0.027572039902040213 -0.034999996945891197 0 -0.027286647815920131 -0.036496132962947785 0 -0.028748683146832866 -0.036324155512145143 0 -0.027286647815920131 -0.036496132962947785 0 -0.02800802470846955 -0.037646450113614942 0 -0.030085059193986668 -0.035230977598470853 0 -0.031296281153826558 -0.034668892186033001 0 -0.027286647815920131 -0.036496132962947785 0 -0.026364815201870746 -0.037284114826071982 0 -0.02800802470846955 -0.037646450113614942 0 -0.027286647815920131 -0.036496132962947785 0 -0.026364815201870746 -0.037284114826071982 0 -0.025992472277621494 -0.036099986377081422 0 -0.026758724117511137 -0.035521810687336293 0 -0.031296281153826558 -0.034668892186033001 0 -0.024698151769370288 -0.037095074512621895 0 -0.024784724067863285 -0.037230408038442318 0 -0.024937896089613897 -0.037169732185241069 0 -0.024698151769370288 -0.037095074512621895 0 -0.024784724067863285 -0.037230408038442318 0 -0.024628588508153283 -0.037273083630236514 0 -0.024784724067863285 -0.037230408038442318 0 -0.024937896089613897 -0.037169732185241069 0 -0.024798301123920122 -0.037383080681443415 0 -0.040593231653517477 -0.034192564453864413 0 -0.041420712292210511 -0.032478475050680404 0 -0.03966725388117083 -0.032933531785800378 0 -0.031296281153826558 -0.034668892186033001 0 -0.031805357770083822 -0.034104103945846599 0 -0.041420712292210511 -0.032478475050680404 0 -0.03966725388117083 -0.032933531785800378 0 -0.040221509124686777 -0.031837289116491328 0 -0.024798301123920122 -0.037383080681443415 0 -0.024628588508153283 -0.037273083630236514 0 -0.024577206434991498 -0.037393445236554884 0 -0.024784724067863285 -0.037230408038442318 0 -0.024798301123920122 -0.037383080681443415 0 -0.024628588508153283 -0.037273083630236514 0 -0.040593231653517477 -0.034192564453864413 0 -0.038016011276908374 -0.033836504611916916 0 -0.03966725388117083 -0.032933531785800378 0 -0.031296281153826558 -0.034668892186033001 0 -0.034043813069774324 -0.034579580015102307 0 -0.03034738171454204 -0.034646163598175753 0 -0.030181192984313619 -0.035191070415459422 0 -0.03183493697323779 -0.03502947673820464 0 -0.03966725388117083 -0.032933531785800378 0 -0.038267634050473877 -0.032125823466623203 0 -0.039377429129738593 -0.031988060764038838 0 -0.03966725388117083 -0.032933531785800378 0 -0.039377429129738593 -0.031988060764038838 0 -0.040221509124686777 -0.031837289116491328 0 -0.038016011276908374 -0.033836504611916916 0 -0.03966725388117083 -0.032933531785800378 0 -0.038267634050473877 -0.032125823466623203 0 -0.038267634050473877 -0.032125823466623203 0 -0.038241007463014495 -0.031016933100821278 0 -0.036837196627806705 -0.030858808323950583 0 -0.038241007463014495 -0.031016933100821278 0 -0.037994093362440362 -0.029998296610415892 0 -0.036837196627806705 -0.030858808323950583 0 -0.038241007463014495 -0.031016933100821278 0 -0.038799436824551718 -0.030997703812493622 0 -0.038740527477863981 -0.030501566483951349 0 -0.038241007463014495 -0.031016933100821278 0 -0.038930261065108225 -0.031447979585615647 0 -0.038799436824551718 -0.030997703812493622 0 -0.038267634050473877 -0.032125823466623203 0 -0.038241007463014495 -0.031016933100821278 0 -0.038930261065108225 -0.031447979585615647 0 -0.038267634050473877 -0.032125823466623203 0 -0.039377429129738593 -0.031988060764038838 0 -0.038930261065108225 -0.031447979585615647 0 -0.039377429129738593 -0.031988060764038838 0 -0.038930261065108225 -0.031447979585615647 0 -0.03951443492515281 -0.031324299483997411 0 -0.039377429129738593 -0.031988060764038838 0 -0.03951443492515281 -0.031324299483997411 0 -0.040221509124686777 -0.031837289116491328 0 -0.03951443492515281 -0.031324299483997411 0 -0.040221509124686777 -0.031837289116491328 0 -0.040213691893327935 -0.031032406679145235 0 -0.038285439202060477 -0.029063059990996967 0 -0.038269541834347047 -0.028802336064879874 0 -0.03951443492515281 -0.031324299483997411 0 -0.039287497205252403 -0.031028825797976625 0 -0.039674905033516901 -0.030354760227160868 0 -0.03951443492515281 -0.031324299483997411 0 -0.039654240712560997 -0.030685112971207112 0 -0.040213691893327935 -0.031032406679145235 0 -0.038257283867701802 -0.028908808201779049 0 -0.038269541834347047 -0.028802336064879874 0 -0.039287497205252403 -0.031028825797976625 0 -0.038740527477863981 -0.030501566483951349 0 -0.039602020466416921 -0.030427353059103136 0 -0.038930261065108225 -0.031447979585615647 0 -0.038799436824551718 -0.030997703812493622 0 -0.039287497205252403 -0.031028825797976625 0 -0.038930261065108225 -0.031447979585615647 0 -0.03951443492515281 -0.031324299483997411 0 -0.039287497205252403 -0.031028825797976625 0 -0.038799436824551718 -0.030997703812493622 0 -0.039287497205252403 -0.031028825797976625 0 -0.038740527477863981 -0.030501566483951349 0 -0.038740527477863981 -0.030501566483951349 0 -0.039602020466416921 -0.030427353059103136 0 -0.038855644915108734 -0.029536552626806586 0 -0.038269541834347047 -0.028802336064879874 0 -0.038473655081586622 -0.027529984145547925 0 -0.039602020466416921 -0.030427353059103136 0 -0.038855644915108734 -0.029536552626806586 0 -0.039855413794226309 -0.028462411716943654 0 -0.038855644915108734 -0.029536552626806586 0 -0.037994093362440362 -0.029998296610415892 0 -0.038096029096348329 -0.028324622258018992 0 -0.037994093362440362 -0.029998296610415892 0 -0.038096029096348329 -0.028324622258018992 0 -0.036845199481705462 -0.02969037951043689 0 -0.038740527477863981 -0.030501566483951349 0 -0.038855644915108734 -0.029536552626806586 0 -0.037994093362440362 -0.029998296610415892 0 -0.038241007463014495 -0.031016933100821278 0 -0.038740527477863981 -0.030501566483951349 0 -0.037994093362440362 -0.029998296610415892 0 -0.041420712292210511 -0.032478475050680404 0 -0.042113095499801086 -0.030937019911341505 0 -0.041007856498196209 -0.031150809620692676 0 -0.024798301123920122 -0.037383080681443415 0 -0.024653681622954143 -0.037562638546046356 0 -0.024577206434991498 -0.037393445236554884 0 -0.031805357770083822 -0.034104103945846599 0 -0.031879904936484064 -0.032975142602979415 0 -0.042113095499801086 -0.030937019911341505 0 -0.041007856498196209 -0.031150809620692676 0 -0.041407429857250648 -0.030461035948809868 0 -0.041420712292210511 -0.032478475050680404 0 -0.041007856498196209 -0.031150809620692676 0 -0.040221509124686777 -0.031837289116491328 0 -0.041007856498196209 -0.031150809620692676 0 -0.040221509124686777 -0.031837289116491328 0 -0.040213691893327935 -0.031032406679145235 0 -0.039654240712560997 -0.030685112971207112 0 -0.040668535911080606 -0.030213987184649436 0 -0.0406159073443167 -0.029123645300800142 0 -0.038269541834347047 -0.028802336064879874 0 -0.038177611204398339 -0.027403704357321042 0 -0.041007856498196209 -0.031150809620692676 0 -0.040213691893327935 -0.031032406679145235 0 -0.040668535911080606 -0.030213987184649436 0 -0.039654240712560997 -0.030685112971207112 0 -0.040213691893327935 -0.031032406679145235 0 -0.040668535911080606 -0.030213987184649436 0 -0.041007856498196209 -0.031150809620692676 0 -0.040668535911080606 -0.030213987184649436 0 -0.041407429857250648 -0.030461035948809868 0 -0.040668535911080606 -0.030213987184649436 0 -0.041407429857250648 -0.030461035948809868 0 -0.041836633256747607 -0.029553379881656697 0 -0.042113095499801086 -0.030937019911341505 0 -0.041836633256747607 -0.029553379881656697 0 -0.042837685958017832 -0.029527992631842023 0 -0.042113095499801086 -0.030937019911341505 0 -0.041407429857250648 -0.030461035948809868 0 -0.041836633256747607 -0.029553379881656697 0 -0.041836633256747607 -0.029553379881656697 0 -0.041540545612249187 -0.028754506681937353 0 -0.0406159073443167 -0.029123645300800142 0 -0.041836633256747607 -0.029553379881656697 0 -0.041540545612249187 -0.028754506681937353 0 -0.042226284696366093 -0.028665947480630696 0 -0.040668535911080606 -0.030213987184649436 0 -0.041836633256747607 -0.029553379881656697 0 -0.0406159073443167 -0.029123645300800142 0 -0.038177611204398339 -0.027403704357321042 0 -0.037336332065040799 -0.025608367370000575 0 -0.038333346381647454 -0.027081722457358591 0 -0.038046173146035887 -0.026041800322701095 0 -0.038915835170818473 -0.02605394584427179 0 -0.038333346381647454 -0.027081722457358591 0 -0.038046173146035887 -0.026041800322701095 0 -0.037897569512124189 -0.027075788085056736 0 -0.038548059362448657 -0.025815167212803986 0 -0.037336332065040799 -0.025608367370000575 0 -0.041474583480569517 -0.02769102917541489 0 -0.042226284696366093 -0.028665947480630696 0 -0.042569417402348077 -0.027726166916375295 0 -0.041540545612249187 -0.028754506681937353 0 -0.041474583480569517 -0.02769102917541489 0 -0.042226284696366093 -0.028665947480630696 0 -0.037336332065040799 -0.025608367370000575 0 -0.03542673652815042 -0.026229658413114115 0 -0.041540545612249187 -0.028754506681937353 0 -0.0406159073443167 -0.029123645300800142 0 -0.041474583480569517 -0.02769102917541489 0 -0.037749665526530467 -0.028112410585457191 0 -0.038333346381647454 -0.027081722457358591 0 -0.037897569512124189 -0.027075788085056736 0 -0.038855644915108734 -0.029536552626806586 0 -0.038096029096348329 -0.028324622258018992 0 -0.039855413794226309 -0.028462411716943654 0 -0.040131340698549914 -0.026526799569996807 0 -0.038096029096348329 -0.028324622258018992 0 -0.039855413794226309 -0.028462411716943654 0 -0.038548059362448657 -0.025815167212803986 0 -0.038473655081586622 -0.027529984145547925 0 -0.040131340698549914 -0.026526799569996807 0 -0.038096029096348329 -0.028324622258018992 0 -0.037528466707938267 -0.026494602614703603 0 -0.038096029096348329 -0.028324622258018992 0 -0.03657143031740049 -0.028075506414932776 0 -0.037528466707938267 -0.026494602614703603 0 -0.03657143031740049 -0.028075506414932776 0 -0.034931406332899949 -0.026458975136434668 0 -0.037528466707938267 -0.026494602614703603 0 -0.038096029096348329 -0.028324622258018992 0 -0.03657143031740049 -0.028075506414932776 0 -0.036845199481705462 -0.02969037951043689 0 -0.03657143031740049 -0.028075506414932776 0 -0.035622907525392107 -0.029023364357024177 0 -0.036845199481705462 -0.02969037951043689 0 -0.036118270874031716 -0.029232937418472497 0 -0.03562191098274585 -0.02813493914669454 0 -0.035621808244496601 -0.029576467917666324 0 -0.037934246017607781 -0.028240457772427955 0 -0.037658903448517717 -0.027222875889493826 0 -0.03647594419749952 -0.027454240938612713 0 -0.036754204348622296 -0.02775049940019985 0 -0.035928884327332308 -0.027331283287918035 0 -0.036754204348622296 -0.02775049940019985 0 -0.036755081549228019 -0.027764620692695169 0 -0.036754204348622296 -0.02775049940019985 0 -0.036782610569640044 -0.027145340621465171 0 -0.03657143031740049 -0.028075506414932776 0 -0.035622907525392107 -0.029023364357024177 0 -0.035277693359566521 -0.027739393052817887 0 -0.03657143031740049 -0.028075506414932776 0 -0.035277693359566521 -0.027739393052817887 0 -0.034931406332899949 -0.026458975136434668 0 -0.036782610569640044 -0.027145340621465171 0 -0.036829893898840227 -0.02631806917972903 0 -0.037658903448517717 -0.027222875889493826 0 -0.036969347118857333 -0.026855336884800754 0 -0.037383481915661029 -0.026200966822832548 0 -0.036969347118857333 -0.026855336884800754 0 -0.03647594419749952 -0.027454240938612713 0 -0.036575129978837294 -0.026186838534148899 0 -0.03647594419749952 -0.027454240938612713 0 -0.035713416029635223 -0.026067535290322109 0 -0.036575129978837294 -0.026186838534148899 0 -0.036969347118857333 -0.026855336884800754 0 -0.036575129978837294 -0.026186838534148899 0 -0.037383481915661029 -0.026200966822832548 0 -0.037658903448517717 -0.027222875889493826 0 -0.036969347118857333 -0.026855336884800754 0 -0.03647594419749952 -0.027454240938612713 0 -0.035000734328042758 -0.026667093623020215 0 -0.035928884327332308 -0.027331283287918035 0 -0.035000002241537521 -0.026666276257466027 0 -0.03647594419749952 -0.027454240938612713 0 -0.035713416029635223 -0.026067535290322109 0 -0.034999894811795558 -0.026667464841434979 0 -0.03562191098274585 -0.02813493914669454 0 -0.034999138516797833 -0.028699014281908408 0 -0.03562191098274585 -0.02813493914669454 0 -0.035621808244496601 -0.029576467917666324 0 -0.034999138516797833 -0.028699014281908408 0 -0.035621808244496601 -0.029576467917666324 0 -0.034999138516797833 -0.028699014281908408 0 -0.035131076216540449 -0.03075577297417878 0 -0.034998041558806418 -0.031405365693813768 0 -0.034999138516797833 -0.028699014281908408 0 -0.035131076216540449 -0.03075577297417878 0 -0.035621808244496601 -0.029576467917666324 0 -0.035131076216540449 -0.03075577297417878 0 -0.035585442009047764 -0.03081746493025074 0 -0.03469765500864086 -0.033312896584753268 0 -0.035131076216540449 -0.03075577297417878 0 -0.035585442009047764 -0.03081746493025074 0 -0.03469765500864086 -0.033312896584753268 0 -0.035585442009047764 -0.03081746493025074 0 -0.036837196627806705 -0.030858808323950583 0 -0.035585442009047764 -0.03081746493025074 0 -0.036837196627806705 -0.030858808323950583 0 -0.036151324175865501 -0.030030406020766561 0 -0.036837196627806705 -0.030858808323950583 0 -0.036845199481705462 -0.02969037951043689 0 -0.036151324175865501 -0.030030406020766561 0 -0.037994093362440362 -0.029998296610415892 0 -0.036837196627806705 -0.030858808323950583 0 -0.036845199481705462 -0.02969037951043689 0 -0.036078789826459755 -0.029229678361176487 0 -0.036845199481705462 -0.02969037951043689 0 -0.036115435025302955 -0.029373753086678143 0 -0.036845199481705462 -0.02969037951043689 0 -0.036115435025302955 -0.029373753086678143 0 -0.036151324175865501 -0.030030406020766561 0 -0.036754204348622296 -0.02775049940019985 0 -0.036851436737405097 -0.0279848311267402 0 -0.035621808244496601 -0.029576467917666324 0 -0.036115435025302955 -0.029373753086678143 0 -0.036151324175865501 -0.030030406020766561 0 -0.036118270874031716 -0.029232937418472497 0 -0.035621808244496601 -0.029576467917666324 0 -0.036115435025302955 -0.029373753086678143 0 -0.035621808244496601 -0.029576467917666324 0 -0.035585442009047764 -0.03081746493025074 0 -0.036151324175865501 -0.030030406020766561 0 -0.01486453742072693 -0.036801893319661237 0 -0.013208089747130015 -0.034785671711430627 0 -0.017682189386102602 -0.037974502312891498 0 -0.017586903951589256 -0.04020342099502882 0 -0.016411663354370075 -0.038516823601188147 0 -0.019242158775124356 -0.038368391350286093 0 -0.017904298566201238 -0.037917942685793869 0 -0.017787325016658553 -0.039443361984425752 0 -0.019242158775124356 -0.038368391350286093 0 -0.019170032534756611 -0.039693139255156065 0 -0.017787325016658553 -0.039443361984425752 0 -0.019242158775124356 -0.038368391350286093 0 -0.020461173998232836 -0.03894738703381985 0 -0.019170032534756611 -0.039693139255156065 0 -0.019242158775124356 -0.038368391350286093 0 -0.018737617825912132 -0.037191853324862766 0 -0.019787867342368256 -0.037058248411962022 0 -0.019242158775124356 -0.038368391350286093 0 -0.018737617825912132 -0.037191853324862766 0 -0.017904298566201238 -0.037917942685793869 0 -0.01486453742072693 -0.036801893319661237 0 -0.015403890248377648 -0.03672361063130105 0 -0.018737617825912132 -0.037191853324862766 0 -0.017904298566201238 -0.037917942685793869 0 -0.017967550262196263 -0.036336404310605204 0 -0.017682189386102602 -0.037974502312891498 0 -0.017967550262196263 -0.036336404310605204 0 -0.01614929819584178 -0.036762277187900025 0 -0.017967550262196263 -0.036336404310605204 0 -0.017968729443480606 -0.034999729204999448 0 -0.01915827271576313 -0.036058583600996882 0 -0.017967550262196263 -0.036336404310605204 0 -0.017968729443480606 -0.034999729204999448 0 -0.016794927075066399 -0.035710406220521435 0 -0.017968729443480606 -0.034999729204999448 0 -0.01915827271576313 -0.036058583600996882 0 -0.019889422310412744 -0.034999982540826563 0 -0.018737617825912132 -0.037191853324862766 0 -0.017967550262196263 -0.036336404310605204 0 -0.01915827271576313 -0.036058583600996882 0 -0.018737617825912132 -0.037191853324862766 0 -0.01915827271576313 -0.036058583600996882 0 -0.019787867342368256 -0.037058248411962022 0 -0.019787867342368256 -0.037058248411962022 0 -0.020415069568588701 -0.035941702747960901 0 -0.020867955642825443 -0.036891559466928014 0 -0.01915827271576313 -0.036058583600996882 0 -0.019787867342368256 -0.037058248411962022 0 -0.020415069568588701 -0.035941702747960901 0 -0.019889422310412744 -0.034999982540826563 0 -0.020415069568588701 -0.035941702747960901 0 -0.021810069143107444 -0.034999959401281103 0 -0.01915827271576313 -0.036058583600996882 0 -0.019889422310412744 -0.034999982540826563 0 -0.020415069568588701 -0.035941702747960901 0 -0.020415069568588701 -0.035941702747960901 0 -0.021810069143107444 -0.034999959401281103 0 -0.021407079597146956 -0.036150259305759158 0 -0.021407079597146956 -0.036150259305759158 0 -0.020867955642825443 -0.036891559466928014 0 -0.02199663786869871 -0.036857316172346034 0 -0.020415069568588701 -0.035941702747960901 0 -0.021407079597146956 -0.036150259305759158 0 -0.020867955642825443 -0.036891559466928014 0 -0.020867955642825443 -0.036891559466928014 0 -0.021428186959962407 -0.037597840930327149 0 -0.02199663786869871 -0.036857316172346034 0 -0.021428186959962407 -0.037597840930327149 0 -0.021212306305576134 -0.038523430750156552 0 -0.021929450112245924 -0.038174077537632127 0 -0.021428186959962407 -0.037597840930327149 0 -0.020477595803398464 -0.037891376868236348 0 -0.021212306305576134 -0.038523430750156552 0 -0.020867955642825443 -0.036891559466928014 0 -0.021428186959962407 -0.037597840930327149 0 -0.020477595803398464 -0.037891376868236348 0 -0.019242158775124356 -0.038368391350286093 0 -0.019787867342368256 -0.037058248411962022 0 -0.020477595803398464 -0.037891376868236348 0 -0.019787867342368256 -0.0370582484119620