<?xml version="1.0"?>
<VTKFile type="UnstructuredGrid" version="0.1" byte_order="LittleEndian">
<UnstructuredGrid>
<Piece NumberOfPoints="31898" NumberOfCells="11152">
<Points>
<DataArray type="Float64" NumberOfComponents="3" format="ascii">
-0.5 -0.5 0 -0.47620991077874902 -0.44978878706170539 0 -0.49999999999999473 -0.42132396840504388 0 -0.5 -0.5 0 -0.47160970827802529 -0.4793630013852106 0 -0.47620991077874902 -0.44978878706170539 0 -0.5 -0.5 0 -0.47160970827802529 -0.4793630013852106 0 -0.44860394795025399 -0.5 0 -0.47160970827802529 -0.4793630013852106 0 -0.44860394795025399 -0.5 0 -0.4490820238307246 -0.45820516232899983 0 -0.44860394795025399 -0.5 0 -0.4490820238307246 -0.45820516232899983 0 -0.42881687682924802 -0.47781464288736519 0 -0.4490820238307246 -0.45820516232899983 0 -0.45555437223955858 -0.42914059360647611 0 -0.4490820238307246 -0.45820516232899983 0 -0.45555437223955858 -0.42914059360647611 0 -0.43867285131603428 -0.4271457417558665 0 -0.4490820238307246 -0.45820516232899983 0 -0.43867285131603428 -0.4271457417558665 0 -0.4263356171060747 -0.44269880333887462 0 -0.47160970827802529 -0.4793630013852106 0 -0.4490820238307246 -0.45820516232899983 0 -0.47620991077874902 -0.44978878706170539 0 -0.4490820238307246 -0.45820516232899983 0 -0.47620991077874902 -0.44978878706170539 0 -0.45555437223955858 -0.42914059360647611 0 -0.47620991077874902 -0.44978878706170539 0 -0.48101336032419229 -0.41069999664450008 0 -0.45555437223955858 -0.42914059360647611 0 -0.47620991077874902 -0.44978878706170539 0 -0.49999999999999473 -0.42132396840504388 0 -0.48101336032419229 -0.41069999664450008 0 -0.49999999999999473 -0.42132396840504388 0 -0.48101336032419229 -0.41069999664450008 0 -0.5 -0.393886241813306 0 -0.49999999999999473 -0.42132396840504388 0 -0.48101336032419229 -0.41069999664450008 0 -0.5 -0.393886241813306 0 -0.47854472220918332 -0.38978458738689759 0 -0.48422759779560409 -0.37130120630367158 0 -0.5 -0.393886241813306 0 -0.5 -0.36644851522156802 0 -0.48422759779560409 -0.37130120630367158 0 -0.48101336032419229 -0.41069999664450008 0 -0.5 -0.393886241813306 0 -0.47854472220918332 -0.38978458738689759 0 -0.48101336032419229 -0.41069999664450008 0 -0.47854472220918332 -0.38978458738689759 0 -0.46202672064839212 -0.40007602488395211 0 -0.48101336032419229 -0.41069999664450008 0 -0.46202672064839212 -0.40007602488395211 0 -0.47854472220918332 -0.38978458738689759 0 -0.46725442735267431 -0.37660061361585562 0 -0.46202672064839212 -0.40007602488395211 0 -0.47854472220918332 -0.38978458738689759 0 -0.46725442735267431 -0.37660061361585562 0 -0.48422759779560409 -0.37130120630367158 0 -0.46725442735267431 -0.37660061361585562 0 -0.46202672064839212 -0.40007602488395211 0 -0.46725442735267431 -0.37660061361585562 0 -0.45645674801697989 -0.38644133236760531 0 -0.46202672064839212 -0.40007602488395211 0 -0.46725442735267431 -0.37660061361585562 0 -0.45645674801697989 -0.38644133236760531 0 -0.4540003998136638 -0.37455519391687309 0 -0.45645674801697989 -0.38644133236760531 0 -0.46202672064839212 -0.40007602488395211 0 -0.44257020456291563 -0.38918913383950271 0 -0.46202672064839212 -0.40007602488395211 0 -0.44257020456291563 -0.38918913383950271 0 -0.44727608925983742 -0.41095911152778891 0 -0.46202672064839212 -0.40007602488395211 0 -0.44257020456291563 -0.38918913383950271 0 -0.44257020456291563 -0.38918913383950271 0 -0.44727608925983742 -0.41095911152778891 0 -0.43479358559901082 -0.4041454901736512 0 -0.44257020456291563 -0.38918913383950271 0 -0.4540003998136638 -0.37455519391687309 0 -0.44172858264042247 -0.37082207246888088 0 -0.45645674801697989 -0.38644133236760531 0 -0.44257020456291563 -0.38918913383950271 0 -0.4540003998136638 -0.37455519391687309 0 -0.46202672064839212 -0.40007602488395211 0 -0.45555437223955858 -0.42914059360647611 0 -0.44727608925983742 -0.41095911152778891 0 -0.46202672064839212 -0.40007602488395211 0 -0.45555437223955858 -0.42914059360647611 0 -0.48101336032419229 -0.41069999664450008 0 -0.46202672064839212 -0.40007602488395211 0 -0.45555437223955858 -0.42914059360647611 0 -0.44727608925983742 -0.41095911152778891 0 -0.43867285131603428 -0.4271457417558665 0 -0.43676601469929588 -0.41441201227470881 0 -0.44727608925983742 -0.41095911152778891 0 -0.43676601469929588 -0.41441201227470881 0 -0.43479358559901082 -0.4041454901736512 0 -0.45555437223955858 -0.42914059360647611 0 -0.44727608925983742 -0.41095911152778891 0 -0.43867285131603428 -0.4271457417558665 0 -0.43867285131603428 -0.4271457417558665 0 -0.42681803064840879 -0.42717069814352421 0 -0.4263356171060747 -0.44269880333887462 0 -0.42681803064840879 -0.42717069814352421 0 -0.41531815884496182 -0.42985383783075998 0 -0.4263356171060747 -0.44269880333887462 0 -0.42681803064840879 -0.42717069814352421 0 -0.42624289495594048 -0.42089725947505818 0 -0.42083332353326591 -0.42146747131641099 0 -0.42681803064840879 -0.42717069814352421 0 -0.43096994786351572 -0.41951492446283251 0 -0.42624289495594048 -0.42089725947505818 0 -0.43867285131603428 -0.4271457417558665 0 -0.42681803064840879 -0.42717069814352421 0 -0.43096994786351572 -0.41951492446283251 0 -0.43867285131603428 -0.4271457417558665 0 -0.43676601469929588 -0.41441201227470881 0 -0.43096994786351572 -0.41951492446283251 0 -0.43676601469929588 -0.41441201227470881 0 -0.43096994786351572 -0.41951492446283251 0 -0.42907264086257813 -0.41311715872526122 0 -0.43676601469929588 -0.41441201227470881 0 -0.42907264086257813 -0.41311715872526122 0 -0.43479358559901082 -0.4041454901736512 0 -0.42907264086257813 -0.41311715872526122 0 -0.43479358559901082 -0.4041454901736512 0 -0.42460885511582858 -0.40417321677700252 0 -0.42907264086257813 -0.41311715872526122 0 -0.41997834854398469 -0.41180534796019508 0 -0.42907264086257813 -0.41311715872526122 0 -0.42635027777857132 -0.41543594397746519 0 -0.41997834854398469 -0.41180534796019508 0 -0.42907264086257813 -0.41311715872526122 0 -0.41997834854398469 -0.41180534796019508 0 -0.42460885511582858 -0.40417321677700252 0 -0.42635027777857132 -0.41543594397746519 0 -0.41997834854398469 -0.41180534796019508 0 -0.42635027777857132 -0.41543594397746519 0 -0.42083332353326591 -0.42146747131641099 0 -0.41997834854398469 -0.41180534796019508 0 -0.43096994786351572 -0.41951492446283251 0 -0.42624289495594048 -0.42089725947505818 0 -0.42635027777857132 -0.41543594397746519 0 -0.43096994786351572 -0.41951492446283251 0 -0.42907264086257813 -0.41311715872526122 0 -0.42635027777857132 -0.41543594397746519 0 -0.42624289495594048 -0.42089725947505818 0 -0.42635027777857132 -0.41543594397746519 0 -0.42083332353326591 -0.42146747131641099 0 -0.42083332353326591 -0.42146747131641099 0 -0.41997834854398469 -0.41180534796019508 0 -0.40992282953163789 -0.42011435591993562 0 -0.41997834854398469 -0.41180534796019508 0 -0.39756877647335259 -0.40857286797681719 0 -0.41997834854398469 -0.41180534796019508 0 -0.40992282953163789 -0.42011435591993562 0 -0.39756877647335259 -0.40857286797681719 0 -0.40992282953163789 -0.42011435591993562 0 -0.41531815884496182 -0.42985383783075998 0 -0.39591554026262499 -0.42887225451549271 0 -0.41531815884496182 -0.42985383783075998 0 -0.39591554026262499 -0.42887225451549271 0 -0.41160927495564159 -0.44339431233754628 0 -0.42083332353326591 -0.42146747131641099 0 -0.40992282953163789 -0.42011435591993562 0 -0.41531815884496182 -0.42985383783075998 0 -0.42681803064840879 -0.42717069814352421 0 -0.42083332353326591 -0.42146747131641099 0 -0.41531815884496182 -0.42985383783075998 0 -0.44257020456291563 -0.38918913383950271 0 -0.42311368847744002 -0.37830224279505142 0 -0.42594061475171041 -0.39368797999533162 0 -0.44257020456291563 -0.38918913383950271 0 -0.42311368847744002 -0.37830224279505142 0 -0.44172858264042247 -0.37082207246888088 0 -0.44257020456291563 -0.38918913383950271 0 -0.42311368847744002 -0.37830224279505142 0 -0.42311368847744002 -0.37830224279505142 0 -0.42594061475171041 -0.39368797999533162 0 -0.416587075656149 -0.38785930376960043 0 -0.44257020456291563 -0.38918913383950271 0 -0.42594061475171041 -0.39368797999533162 0 -0.43479358559901082 -0.4041454901736512 0 -0.42594061475171041 -0.39368797999533162 0 -0.43479358559901082 -0.4041454901736512 0 -0.42460885511582858 -0.40417321677700252 0 -0.41997834854398469 -0.41180534796019508 0 -0.41325908582185972 -0.39811010703057192 0 -0.39770572831670092 -0.39911486077581648 0 -0.41997834854398469 -0.41180534796019508 0 -0.39770572831670092 -0.39911486077581648 0 -0.42594061475171041 -0.39368797999533162 0 -0.42460885511582858 -0.40417321677700252 0 -0.41325908582185972 -0.39811010703057192 0 -0.41997834854398469 -0.41180534796019508 0 -0.42460885511582858 -0.40417321677700252 0 -0.41325908582185972 -0.39811010703057192 0 -0.42594061475171041 -0.39368797999533162 0 -0.41325908582185972 -0.39811010703057192 0 -0.416587075656149 -0.38785930376960043 0 -0.41325908582185972 -0.39811010703057192 0 -0.416587075656149 -0.38785930376960043 0 -0.40403491357358612 -0.38133688525744702 0 -0.42311368847744002 -0.37830224279505142 0 -0.40403491357358612 -0.38133688525744702 0 -0.40365717239196519 -0.36741535175059892 0 -0.42311368847744002 -0.37830224279505142 0 -0.416587075656149 -0.38785930376960043 0 -0.40403491357358612 -0.38133688525744702 0 -0.40403491357358612 -0.38133688525744702 0 -0.39190790742475001 -0.38540387676521748 0 -0.39770572831670092 -0.39911486077581648 0 -0.40403491357358612 -0.38133688525744702 0 -0.39190790742475001 -0.38540387676521748 0 -0.3904578797192948 -0.37473938743617019 0 -0.41325908582185972 -0.39811010703057192 0 -0.40403491357358612 -0.38133688525744702 0 -0.39770572831670092 -0.39911486077581648 0 -0.39770572831670092 -0.39911486077581648 0 -0.37543310808941849 -0.38642437359143528 0 -0.39770572831670092 -0.39911486077581648 0 -0.37515920440272033 -0.40534038799344108 0 -0.37543310808941849 -0.38642437359143528 0 -0.39770572831670092 -0.39911486077581648 0 -0.37515920440272033 -0.40534038799344108 0 -0.39756877647335259 -0.40857286797681719
[...]
<PointData Scalars="" Vectors="displacement," Tensors="">
<DataArray type="Float64" Name="displacement" NumberOfComponents="3" format="ascii">
-0.034997134694984396 -2.7314288706616763e-07 0 -0.03412067929742018 -0.00018364624604430262 0 -0.034997662289738954 -7.4975627622739267e-07 0 -0.034997134694984396 -2.7314288706616763e-07 0 -0.033475899627289196 -0.0001244051458548758 0 -0.03412067929742018 -0.00018364624604430262 0 -0.034997134694984396 -2.7314288706616763e-07 0 -0.033475899627289196 -0.0001244051458548758 0 -0.031404217078406745 -2.8346559529071568e-07 0 -0.033475899627289196 -0.0001244051458548758 0 -0.031404217078406745 -2.8346559529071568e-07 0 -0.032866178132076089 5.8019965610669421e-05 0 -0.031404217078406745 -2.8346559529071568e-07 0 -0.032866178132076089 5.8019965610669421e-05 0 -0.031220520997703109 -6.7728081437580339e-05 0 -0.033225082559385527 0.00018649221831817676 0 -0.033420878416111341 0.00018327699586606416 0 -0.032866178132076089 5.8019965610669421e-05 0 -0.032355476755407717 0.00027035039380584003 0 -0.032306886089289881 8.6528576082654652e-05 0 -0.032866178132076089 5.8019965610669421e-05 0 -0.032306886089289881 8.6528576082654652e-05 0 -0.032315722809994431 1.649261511141683e-05 0 -0.033475899627289196 -0.0001244051458548758 0 -0.032866178132076089 5.8019965610669421e-05 0 -0.03412067929742018 -0.00018364624604430262 0 -0.032866178132076089 5.8019965610669421e-05 0 -0.03412067929742018 -0.00018364624604430262 0 -0.034444285516177203 0.00025589320714159986 0 -0.03412067929742018 -0.00018364624604430262 0 -0.034881377998834111 -3.4679467626775171e-05 0 -0.034444285516177203 0.00025589320714159986 0 -0.03412067929742018 -0.00018364624604430262 0 -0.034997662289738954 -7.4975627622739267e-07 0 -0.034881377998834111 -3.4679467626775171e-05 0 -0.034999999461391797 4.8110653510703202e-11 0 -0.03499930649439998 -2.9705969507220209e-07 0 -0.034999999217329145 -3.8236647175877296e-10 0 -0.034999026475987384 3.7024656435977899e-07 0 -0.03451733831662647 0.00011374130264784428 0 -0.034999999217329145 -3.8236647175877296e-10 0 -0.034999173434747989 -5.0523114456047773e-07 0 -0.034999698063922571 -7.634302270929242e-07 0 -0.034999999217329145 -3.8236647175877296e-10 0 -0.03499999846034179 -1.02212287132982e-09 0 -0.034999698063922571 -7.634302270929242e-07 0 -0.03499930649439998 -2.9705969507220209e-07 0 -0.034999999217329145 -3.8236647175877296e-10 0 -0.034999173434747989 -5.0523114456047773e-07 0 -0.03499930649439998 -2.9705969507220209e-07 0 -0.034999173434747989 -5.0523114456047773e-07 0 -0.034998230094180856 -4.7825497132414507e-07 0 -0.03451733831662647 0.00011374130264784428 0 -0.033774227090165435 0.00012270211788047364 0 -0.034999173434747989 -5.0523114456047773e-07 0 -0.034999016455347344 -5.7823911770538696e-07 0 -0.034998230094180856 -4.7825497132414507e-07 0 -0.034999173434747989 -5.0523114456047773e-07 0 -0.034999016455347344 -5.7823911770538696e-07 0 -0.034999698063922571 -7.634302270929242e-07 0 -0.03433793278011453 3.6742656732672579e-05 0 -0.033774227090165435 0.00012270211788047364 0 -0.033884615031819519 9.360907904869171e-05 0 -0.033709339974430721 0.00029138647905843537 0 -0.033464438358403702 0.00019172583251229474 0 -0.033884615031819519 9.360907904869171e-05 0 -0.033709339974430721 0.00029138647905843537 0 -0.033924465369421848 0.00033765631723559482 0 -0.033709339974430721 0.00029138647905843537 0 -0.033464438358403702 0.00019172583251229474 0 -0.033661835716891228 0.00054046222078788029 0 -0.032142444542640633 0.00029752444252153354 0 -0.032066279997295416 0.00016507411092504817 0 -0.032220944964500509 0.0001888229802261911 0 -0.033774227090165435 0.00012270211788047364 0 -0.033005323961875672 0.00037631569639462632 0 -0.032066279997295416 0.00016507411092504817 0 -0.032220944964500509 0.0001888229802261911 0 -0.032180552658211993 0.00010792887367463405 0 -0.033661835716891228 0.00054046222078788029 0 -0.033924465369421848 0.00033765631723559482 0 -0.033989962753081582 0.00055579793103201301 0 -0.033709339974430721 0.00029138647905843537 0 -0.033661835716891228 0.00054046222078788029 0 -0.033924465369421848 0.00033765631723559482 0 -0.032142444542640633 0.00029752444252153354 0 -0.032355476755407717 0.00027035039380584003 0 -0.032220944964500509 0.0001888229802261911 0 -0.033774227090165435 0.00012270211788047364 0 -0.033420878416111341 0.00018327699586606416 0 -0.034881377998834111 -3.4679467626775171e-05 0 -0.035002200538244668 0.000230078582024207 0 -0.034444285516177203 0.00025589320714159986 0 -0.032220944964500509 0.0001888229802261911 0 -0.032306886089289881 8.6528576082654652e-05 0 -0.03225700129966045 0.0001126637419757158 0 -0.032220944964500509 0.0001888229802261911 0 -0.03225700129966045 0.0001126637419757158 0 -0.032180552658211993 0.00010792887367463405 0 -0.032355476755407717 0.00027035039380584003 0 -0.032220944964500509 0.0001888229802261911 0 -0.032306886089289881 8.6528576082654652e-05 0 -0.032306886089289881 8.6528576082654652e-05 0 -0.032309080724615052 7.3055098873683069e-05 0 -0.032315722809994431 1.649261511141683e-05 0 -0.032309080724615052 7.3055098873683069e-05 0 -0.032309931465979831 0.00014438431909171738 0 -0.032315722809994431 1.649261511141683e-05 0 -0.032309080724615052 7.3055098873683069e-05 0 -0.03230319810794717 8.0320810173052781e-05 0 -0.032311639731734731 0.00010514739634586818 0 -0.032309080724615052 7.3055098873683069e-05 0 -0.032293328765535173 8.2110722697124622e-05 0 -0.03230319810794717 8.0320810173052781e-05 0 -0.032306886089289881 8.6528576082654652e-05 0 -0.032309080724615052 7.3055098873683069e-05 0 -0.032293328765535173 8.2110722697124622e-05 0 -0.032306886089289881 8.6528576082654652e-05 0 -0.03225700129966045 0.0001126637419757158 0 -0.032293328765535173 8.2110722697124622e-05 0 -0.03225700129966045 0.0001126637419757158 0 -0.032293328765535173 8.2110722697124622e-05 0 -0.032267254759811043 7.5833848016112427e-05 0 -0.03225700129966045 0.0001126637419757158 0 -0.032267254759811043 7.5833848016112427e-05 0 -0.032180552658211993 0.00010792887367463405 0 -0.032267254759811043 7.5833848016112427e-05 0 -0.032180552658211993 0.00010792887367463405 0 -0.032181727029276082 3.0346699250435881e-05 0 -0.029044553292763634 0.00089545476236628919 0 -0.028939893269027135 0.00096138414175569867 0 -0.032267254759811043 7.5833848016112427e-05 0 -0.032296874269371147 6.965035390865943e-05 0 -0.03227869713911273 3.5045265748595602e-05 0 -0.032267254759811043 7.5833848016112427e-05 0 -0.03224824728857547 -8.5197748016525878e-06 0 -0.032181727029276082 3.0346699250435881e-05 0 -0.029038415143814951 0.00099026539451444145 0 -0.028939893269027135 0.00096138414175569867 0 -0.032296874269371147 6.965035390865943e-05 0 -0.032311639731734731 0.00010514739634586818 0 -0.032345257771213408 0.00011160958610395952 0 -0.032293328765535173 8.2110722697124622e-05 0 -0.03230319810794717 8.0320810173052781e-05 0 -0.032296874269371147 6.965035390865943e-05 0 -0.032293328765535173 8.2110722697124622e-05 0 -0.032267254759811043 7.5833848016112427e-05 0 -0.032296874269371147 6.965035390865943e-05 0 -0.03230319810794717 8.0320810173052781e-05 0 -0.032296874269371147 6.965035390865943e-05 0 -0.032311639731734731 0.00010514739634586818 0 -0.032311639731734731 0.00010514739634586818 0 -0.032345257771213408 0.00011160958610395952 0 -0.032323782135159157 0.00016288202720802638 0 -0.028939893269027135 0.00096138414175569867 0 -0.028176847280348371 0.0007989970016715124 0 -0.032345257771213408 0.00011160958610395952 0 -0.032323782135159157 0.00016288202720802638 0 -0.032367917090735117 0.00022281313811427144 0 -0.032323782135159157 0.00016288202720802638 0 -0.032309931465979831 0.00014438431909171738 0 -0.032290704130369982 0.00023561934099643761 0 -0.032309931465979831 0.00014438431909171738 0 -0.032290704130369982 0.00023561934099643761 0 -0.032251938263118424 0.00021888200792229395 0 -0.032311639731734731 0.00010514739634586818 0 -0.032323782135159157 0.00016288202720802638 0 -0.032309931465979831 0.00014438431909171738 0 -0.032309080724615052 7.3055098873683069e-05 0 -0.032311639731734731 0.00010514739634586818 0 -0.032309931465979831 0.00014438431909171738 0 -0.032066279997295416 0.00016507411092504817 0 -0.031966035085341529 1.7990556665313151e-05 0 -0.03209498443620834 3.99017144289836e-05 0 -0.033661835716891228 0.00054046222078788029 0 -0.033856427860102407 0.00088146429310220276 0 -0.033989962753081582 0.00055579793103201301 0 -0.033005323961875672 0.00037631569639462632 0 -0.032379223231766389 0.00078673379066661699 0 -0.031966035085341529 1.7990556665313151e-05 0 -0.03209498443620834 3.99017144289836e-05 0 -0.032042829562182983 -3.5376385505193646e-05 0 -0.032066279997295416 0.00016507411092504817 0 -0.03209498443620834 3.99017144289836e-05 0 -0.032180552658211993 0.00010792887367463405 0 -0.03209498443620834 3.99017144289836e-05 0 -0.032180552658211993 0.00010792887367463405 0 -0.032181727029276082 3.0346699250435881e-05 0 -0.03224824728857547 -8.5197748016525878e-06 0 -0.032129113377820179 -6.3493734721344701e-05 0 -0.032135690571354764 -0.00019500046521792237 0 -0.028939893269027135 0.00096138414175569867 0 -0.028301510972102817 0.0011320839141612446 0 -0.03209498443620834 3.99017144289836e-05 0 -0.032181727029276082 3.0346699250435881e-05 0 -0.032129113377820179 -6.3493734721344701e-05 0 -0.03224824728857547 -8.5197748016525878e-06 0 -0.032181727029276082 3.0346699250435881e-05 0 -0.032129113377820179 -6.3493734721344701e-05 0 -0.03209498443620834 3.99017144289836e-05 0 -0.032129113377820179 -6.3493734721344701e-05 0 -0.032042829562182983 -3.5376385505193646e-05 0 -0.032129113377820179 -6.3493734721344701e-05 0 -0.032042829562182983 -3.5376385505193646e-05 0 -0.031981600803486734 -0.0001369690223973616 0 -0.031966035085341529 1.7990556665313151e-05 0 -0.031981600803486734 -0.0001369690223973616 0 -0.031870539834678871 -0.00013866822828808881 0 -0.031966035085341529 1.7990556665313151e-05 0 -0.032042829562182983 -3.5376385505193646e-05 0 -0.031981600803486734 -0.0001369690223973616 0 -0.031981600803486734 -0.0001369690223973616 0 -0.032012244950583225 -0.0002483876093177675 0 -0.032135690571354764 -0.00019500046521792237 0 -0.031981600803486734 -0.0001369690223973616 0 -0.032012244950583225 -0.0002483876093177675 0 -0.031912058190149507 -0.00026204832371486261 0 -0.032129113377820179 -6.3493734721344701e-05 0 -0.031981600803486734 -0.0001369690223973616 0 -0.032135690571354764 -0.00019500046521792237 0 -0.028301510972102817 0.0011320839141612446 0 -0.026560918921104067 0.0013749023810477117 0 -0.027611525204456019 0.0010144706683762879 0 -0.027693515797664558 0.00071188165343454566 0 -0.02743944683218397 0.00071584300668845759 0 -0.027611525204456019 0.0010144706683762879 0 -0.027693515797664558 0.00071188165343454566 0 -0.027738663235448754 0.0010125177967130275 0 -0.026566106187096133 0.00056215082850663318 0 -0.026560918921104067 0.0013749023810477117 0 -0.03201813055047889 -0.00040110888715498138 0 -0.031912058190149507 -0.00026204832371486261 0 -0.031855606722529232 -0.0004013997898714117 0 -0.032012244950583225 -0.0002483876093177675 0 -0.03201813055047889 -0.00040110888715498138 0 -0.031912058190149507 -0.00026204832371486261 0 -0.026560918921104067 0.0013749023810477117 0 -0.028239880444790928 0.0013678243354823569 0 -0.032012244950583225 -0.0002483876093177675 0 -0.032135690571354764 -0.00019500046521792237 0 -0.03201813055047889 -0.00040110888715498138 0 -0.027784584549197223 0.001312746371284035 0 -0.027611525204456019 0.0010144706683762879 0 -0.027738663235448754 0.0010125177967130275 0 -0.032323782135159157 0.00016288202720802638 0 -0.032290704130369982 0.00023561934099643761 0 -0.032367917090735117 0.00022281313811427144 0 -0.032370624086160114 0.00030857842991593342 0 -0.032290704130369982 0.00023561934099643761 0 -0.032367917090735117 0.00022281313811427144 0 -0.026566106187096133 0.00056215082850663318 0 -0.028176847280348371 0.0007989970016715124 0 -0.032370624086160114 0.00030857842991593342 0 -0.032290704130369982 0.00023561934099643761 0 -0.032265766710801579 0.00030946409093951294 0 -0.032290704130369982 0.00023561934099643761 0 -0.03223659332285668 0.00025317664479545447 0 -0.032265766710801579 0.00030946409093951294 0 -0.03223659332285668 0.00025317664479545447 0 -0.03217174559949515 0.00031201371427353044 0 -0.032265766710801579 0.00030946409093951294 0 -0.032290704130369982 0.00023561934099643761 0 -0.03223659332285668 0.00025317664479545447 0 -0.032251938263118424 0.00021888200792229395 0 -0.03223659332285668 0.00025317664479545447 0 -0.032208029071017136 0.00022870374054268907 0 -0.032251938263118424 0.00021888200792229395 0 -0.031724057811808169 0.00065182214961321757 0 -0.029715344259848338 0.00074962048689593231 0 -0.03108884002325869 0.00022873908334703838 0 -0.023695718595191036 0.0017244341797891657 0 -0.023920896036576485 0.00088075205811374098 0 -0.024906468437989899 0.0010792202235703828 0 -0.028341450855554066 -0.00054496404125653551 0 -0.027408726231457819 -2.7884886288316984e-05 0 -0.028341450855554066 -0.00054496404125653551 0 -0.02835077358074807 -0.00054140979286880465 0 -0.028341450855554066 -0.00054496404125653551 0 -0.027596824379717003 0.0001924769300353636 0 -0.03223659332285668 0.00025317664479545447 0 -0.032208029071017136 0.00022870374054268907 0 -0.032188927099358375 0.0002662090866394622 0 -0.03223659332285668 0.00025317664479545447 0 -0.032188927099358375 0.0002662090866394622 0 -0.03217174559949515 0.00031201371427353044 0 -0.027596824379717003 0.0001924769300353636 0 -0.026806299444286006 0.00069503907460391229 0 -0.023920896036576485 0.00088075205811374098 0 -0.024493944484851381 0.00057332479357804632 0 -0.024147547083451515 2.4451042791779987e-05 0 -0.024493944484851381 0.00057332479357804632 0 -0.024906468437989899 0.0010792202235703828 0 -0.024822661847090016 8.5647616245115252e-06 0 -0.024906468437989899 0.0010792202235703828 0 -0.025526269251291676 -0.00012723515613845892 0 -0.024822661847090016 8.5647616245115252e-06 0 -0.024493944484851381 0.00057332479357804632 0 -0.024822661847090016 8.5647616245115252e-06 0 -0.024147547083451515 2.4451042791779987e-05 0 -0.023920896036576485 0.00088075205811374098 0 -0.024493944484851381 0.00057332479357804632 0 -0.024906468437989899 0.0010792202235703828 0 -0.026667574578551016 2.2469889034243439e-07 0 -0.027408726231457819 -2.7884886288316984e-05 0 -0.026663353390680222 1.8245630971186807e-06 0 -0.024906468437989899 0.0010792202235703828 0 -0.025526269251291676 -0.00012723515613845892 0 -0.026669743447298003 2.8474020270996127e-06 0 -0.029715344259848338 0.00074962048689593231 0 -0.028698742600556503 -4.8603345098439277e-07 0 -0.029715344259848338 0.00074962048689593231 0 -0.03108884002325869 0.00022873908334703838 0 -0.028698742600556503 -4.8603345098439277e-07 0 -0.03108884002325869 0.00022873908334703838 0 -0.028698742600556503 -4.8603345098439277e-07 0 -0.031220520997703109 -6.7728081437580339e-05 0 -0.031404217078406745 -2.8346559529071568e-07 0 -0.028698742600556503 -4.8603345098439277e-07 0 -0.031220520997703109 -6.7728081437580339e-05 0 -0.03108884002325869 0.00022873908334703838 0 -0.031220520997703109 -6.7728081437580339e-05 0 -0.031968763872388992 2.9134493406952193e-05 0 -0.032866178132076089 5.8019965610669421e-05 0 -0.031220520997703109 -6.7728081437580339e-05 0 -0.031968763872388992 2.9134493406952193e-05 0 -0.032866178132076089 5.8019965610669421e-05 0 -0.031968763872388992 2.9134493406952193e-05 0 -0.032315722809994431 1.649261511141683e-05 0 -0.031968763872388992 2.9134493406952193e-05 0 -0.032315722809994431 1.649261511141683e-05 0 -0.031990915363231918 0.00016160258550944147 0 -0.032315722809994431 1.649261511141683e-05 0 -0.032251938263118424 0.00021888200792229395 0 -0.031990915363231918 0.00016160258550944147 0 -0.032309931465979831 0.00014438431909171738 0 -0.032315722809994431 1.649261511141683e-05 0 -0.032251938263118424 0.00021888200792229395 0 -0.031764425325409108 0.00062684820665854699 0 -0.032251938263118424 0.00021888200792229395 0 -0.03178639323883934 0.00051981600567577266 0 -0.032251938263118424 0.00021888200792229395 0 -0.03178639323883934 0.00051981600567577266 0 -0.031990915363231918 0.00016160258550944147 0 -0.028341450855554066 -0.00054496404125653551 0 -0.02928671070176421 -0.00077673150755885737 0 -0.03108884002325869 0.00022873908334703838 0 -0.03178639323883934 0.00051981600567577266 0 -0.031990915363231918 0.00016160258550944147 0 -0.031724057811808169 0.00065182214961321757 0 -0.03108884002325869 0.00022873908334703838 0 -0.03178639323883934 0.00051981600567577266 0 -0.03108884002325869 0.00022873908334703838 0 -0.031968763872388992 2.9134493406952193e-05 0 -0.031990915363231918 0.00016160258550944147 0 -0.032295938121705878 0.0004992336029223792 0 -0.030823575422737916 0.0017393031106481302 0 -0.034780214162427672 -0.00027587979362239575 0 -0.034821683471053869 -0.0012491486268709072 0 -0.034298586004420352 -0.0004588798856019314 0 -0.0349438981012474 5.1779826335605045e-05 0 -0.034942283514703305 3.9590897201948551e-05 0 -0.034946278809227356 6.1122632762366201e-05 0 -0.0349438981012474 5.1779826335605045e-05 0 -0.034939595078947228 6.9246857159156988e-05 0 -0.034946278809227356 6.1122632762366201e-05 0 -0.0349438981012474 5.1779826335605045e-05 0 -0.034936538745964134 7.5810940014171233e-05 0 -0.034939595078947228 6.9246857159156988e-05 0 -0.0349438981012474 5.1779826335605045e-05 0 -0.03494073753807931 3.3564625722015718e-05 0 -0.034956575738343196 3.1668915649803194e-05 0 -0.0349438981012474 5.1779826335605045e-05 0 -0.03494073753807931 3.3564625722015718e-05 0 -0.034942283514703305 3.9590897201948551e-05 0 -0.032295938121705878 0.0004992336029223792 0 -0.032741324266528857 0.00032866921194398858 0 -0.03494073753807931 3.3564625722015718e-05 0 -0.034942283514703305 3.9590897201948551e-05 0 -0.034893255767397539 4.8047942833378186e-05 0 -0.034780214162427672 -0.00027587979362239575 0 -0.034893255767397539 4.8047942833378186e-05 0 -0.034365772297503143 5.0738228456846859e-05 0 -0.034893255767397539 4.8047942833378186e-05 0 -0.034999886089262244 1.0278311475776543e-07 0 -0.034961944824686314 2.9782939589306621e-05 0 -0.034893255767397539 4.8047942833378186e-05 0 -0.034999886089262244 1.0278311475776543e-07 0 -0.034751377811779859 5.9713885184674565e-05 0 -0.034999886089262244 1.0278311475776543e-07 0 -0.034961944824686314 2.9782939589306621e-05 0 -0.034999950358405467 -1.0130179992781282e-09 0 -0.03494073753807931 3.3564625722015718e-05 0 -0.034893255767397539 4.8047942833378186e-05 0 -0.034961944824686314 2.9782939589306621e-05 0 -0.03494073753807931 3.3564625722015718e-05 0 -0.034961944824686314 2.9782939589306621e-05 0 -0.034956575738343196 3.1668915649803194e-05 0 -0.034956575738343196 3.1668915649803194e-05 0 -0.034975314723532866 9.3797862542560478e-06 0 -0.034955756179005044 2.3475355219024539e-05 0 -0.034961944824686314 2.9782939589306621e-05 0 -0.034956575738343196 3.1668915649803194e-05 0 -0.034975314723532866 9.3797862542560478e-06 0 -0.034999950358405467 -1.0130179992781282e-09 0 -0.034975314723532866 9.3797862542560478e-06 0 -0.034999956259947576 7.8350080758152022e-09 0 -0.034961944824686314 2.9782939589306621e-05 0 -0.034999950358405467 -1.0130179992781282e-09 0 -0.034975314723532866 9.3797862542560478e-06 0 -0.034975314723532866 9.3797862542560478e-06 0 -0.034999956259947576 7.8350080758152022e-09 0 -0.034968300301050338 -4.8683154988580339e-06 0 -0.034968300301050338 -4.8683154988580339e-06 0 -0.034955756179005044 2.3475355219024539e-05 0 -0.034909109997984113 1.8368700290536454e-05 0 -0.034975314723532866 9.3797862542560478e-06 0 -0.034968300301050338 -4.8683154988580339e-06 0 -0.034955756179005044 2.3475355219024539e-05 0 -0.034955756179005044 2.3475355219024539e-05 0 -0.034921622893356243 5.2505417452948897e-05 0 -0.034909109997984113 1.8368700290536454e-05 0 -0.034921622893356243 5.2505417452948897e-05 0 -0.03491716355097383 7.6922518002134181e-05 0 -0.034891272962371066 7.81578836