<?xml version="1.0"?>
<VTKFile type="UnstructuredGrid" version="0.1" byte_order="LittleEndian">
<UnstructuredGrid>
<Piece NumberOfPoints="30881" NumberOfCells="10862">
<Points>
<DataArray type="Float64" NumberOfComponents="3" format="ascii">
-0.49999999999999828 -0.48677703703187492 0 -0.5 -0.5 0 -0.48129281494584059 -0.49338851851593718 0 -0.5 -0.5 0 -0.48129281494584059 -0.49338851851593718 0 -0.46258562989168328 -0.5 0 -0.49999999999999828 -0.48677703703187492 0 -0.48129281494584059 -0.49338851851593718 0 -0.49999999999999828 -0.48677703703187492 0 -0.4824545428279598 -0.47451624516148783 0 -0.48129281494584059 -0.49338851851593718 0 -0.49999999999999828 -0.48677703703187492 0 -0.4824545428279598 -0.47451624516148783 0 -0.5 -0.46599539173150673 0 -0.4824545428279598 -0.47451624516148783 0 -0.46853075243710779 -0.48354990242643758 0 -0.46411508256092049 -0.46598235294430129 0 -0.4824545428279598 -0.47451624516148783 0 -0.48129281494584059 -0.49338851851593718 0 -0.46853075243710779 -0.48354990242643758 0 -0.48129281494584059 -0.49338851851593718 0 -0.46258562989168328 -0.5 0 -0.48129281494584059 -0.49338851851593718 0 -0.46258562989168328 -0.5 0 -0.46853075243710779 -0.48354990242643758 0 -0.46258562989168328 -0.5 0 -0.46853075243710779 -0.48354990242643758 0 -0.45147378687733691 -0.48362213557840178 0 -0.46853075243710779 -0.48354990242643758 0 -0.45147378687733691 -0.48362213557840178 0 -0.46411508256092049 -0.46598235294430129 0 -0.4457251648104853 -0.47020164095208389 0 -0.45147378687733691 -0.48362213557840178 0 -0.46411508256092049 -0.46598235294430129 0 -0.4457251648104853 -0.47020164095208389 0 -0.45147378687733691 -0.48362213557840178 0 -0.43513446131126993 -0.48199891714758791 0 -0.45147378687733691 -0.48362213557840178 0 -0.43275163025255442 -0.5 0 -0.43513446131126993 -0.48199891714758791 0 -0.46258562989168328 -0.5 0 -0.45147378687733691 -0.48362213557840178 0 -0.43275163025255442 -0.5 0 -0.4467190029717853 -0.45478934699519452 0 -0.4422915115958943 -0.43555510214664611 0 -0.43246707723660932 -0.44794326854796312 0 -0.4457251648104853 -0.47020164095208389 0 -0.4467190029717853 -0.45478934699519452 0 -0.46411508256092049 -0.46598235294430129 0 -0.4457251648104853 -0.47020164095208389 0 -0.4467190029717853 -0.45478934699519452 0 -0.43016578207734568 -0.46313500011938619 0 -0.4467190029717853 -0.45478934699519452 0 -0.46411508256092049 -0.46598235294430129 0 -0.47114575579794699 -0.4403844242888923 0 -0.4467190029717853 -0.45478934699519452 0 -0.47114575579794699 -0.4403844242888923 0 -0.4422915115958943 -0.43555510214664611 0 -0.47114575579794699 -0.4403844242888923 0 -0.4422915115958943 -0.43555510214664611 0 -0.46411508256092049 -0.46598235294430129 0 -0.47114575579794699 -0.4403844242888923 0 -0.48354307623736548 -0.45841843211146538 0 -0.4824545428279598 -0.47451624516148783 0 -0.46411508256092049 -0.46598235294430129 0 -0.48354307623736548 -0.45841843211146538 0 -0.4824545428279598 -0.47451624516148783 0 -0.48354307623736548 -0.45841843211146538 0 -0.5 -0.46599539173150673 0 -0.48354307623736548 -0.45841843211146538 0 -0.5 -0.46599539173150673 0 -0.49999999999999972 -0.44521374643113848 0 -0.47114575579794699 -0.4403844242888923 0 -0.49999999999999972 -0.44521374643113848 0 -0.47114575579794699 -0.4403844242888923 0 -0.49999999999999972 -0.44521374643113848 0 -0.48704432221743971 -0.42935617662229603 0 -0.47114575579794699 -0.4403844242888923 0 -0.48354307623736548 -0.45841843211146538 0 -0.49999999999999972 -0.44521374643113848 0 -0.49999999999999972 -0.44521374643113848 0 -0.48704432221743971 -0.42935617662229603 0 -0.5 -0.41591957503128979 0 -0.48704432221743971 -0.42935617662229603 0 -0.5 -0.41591957503128979 0 -0.47703153307181151 -0.41590696073786332 0 -0.5 -0.41591957503128979 0 -0.47703153307181151 -0.41590696073786332 0 -0.48817838912021821 -0.4022119694541284 0 -0.47114575579794699 -0.4403844242888923 0 -0.48704432221743971 -0.42935617662229603 0 -0.47703153307181151 -0.41590696073786332 0 -0.5 -0.38662540363144121 0 -0.47568202340906118 -0.39039593841591919 0 -0.4947615751445838 -0.37332156409002909 0 -0.47568202340906118 -0.39039593841591919 0 -0.4947615751445838 -0.37332156409002909 0 -0.5 -0.38662540363144121 0 -0.48817838912021821 -0.4022119694541284 0 -0.47568202340906118 -0.39039593841591919 0 -0.5 -0.41591957503128979 0 -0.5 -0.38662540363144121 0 -0.48817838912021821 -0.4022119694541284 0 -0.47703153307181151 -0.41590696073786332 0 -0.48817838912021821 -0.4022119694541284 0 -0.47568202340906118 -0.39039593841591919 0 -0.47703153307181151 -0.41590696073786332 0 -0.47568202340906118 -0.39039593841591919 0 -0.45660247167353862 -0.40747031274180939 0 -0.47568202340906118 -0.39039593841591919 0 -0.48030931097003587 -0.37191064435083931 0 -0.46669490250066459 -0.37481721741951951 0 -0.47568202340906118 -0.39039593841591919 0 -0.4947615751445838 -0.37332156409002909 0 -0.48030931097003587 -0.37191064435083931 0 -0.45332061783919553 -0.38729481725706361 0 -0.46669490250066459 -0.37481721741951951 0 -0.45095991715087752 -0.36968037302039969 0 -0.47568202340906118 -0.39039593841591919 0 -0.45332061783919553 -0.38729481725706361 0 -0.46669490250066459 -0.37481721741951951 0 -0.47568202340906118 -0.39039593841591919 0 -0.45660247167353862 -0.40747031274180939 0 -0.47568202340906118 -0.39039593841591919 0 -0.45332061783919553 -0.38729481725706361 0 -0.45660247167353862 -0.40747031274180939 0 -0.44332653075004852 -0.401690115615219 0 -0.44646247228389868 -0.41654464256061052 0 -0.42870657106664078 -0.39987574649354879 0 -0.45332061783919553 -0.38729481725706361 0 -0.44332653075004852 -0.401690115615219 0 -0.43479631603355468 -0.39077639303142497 0 -0.45332061783919553 -0.38729481725706361 0 -0.44332653075004852 -0.401690115615219 0 -0.45660247167353862 -0.40747031274180939 0 -0.45332061783919553 -0.38729481725706361 0 -0.43421362475025049 -0.37527491429266319 0 -0.43479631603355468 -0.39077639303142497 0 -0.45332061783919553 -0.38729481725706361 0 -0.43421362475025049 -0.37527491429266319 0 -0.45095991715087752 -0.36968037302039969 0 -0.47114575579794699 -0.4403844242888923 0 -0.45663439814062529 -0.42533932462455271 0 -0.4422915115958943 -0.43555510214664611 0 -0.47114575579794699 -0.4403844242888923 0 -0.47703153307181151 -0.41590696073786332 0 -0.45663439814062529 -0.42533932462455271 0 -0.45663439814062529 -0.42533932462455271 0 -0.45660247167353862 -0.40747031274180939 0 -0.44646247228389868 -0.41654464256061052 0 -0.47703153307181151 -0.41590696073786332 0 -0.45663439814062529 -0.42533932462455271 0 -0.45660247167353862 -0.40747031274180939 0 -0.44332653075004852 -0.401690115615219 0 -0.45660247167353862 -0.40747031274180939 0 -0.44646247228389868 -0.41654464256061052 0 -0.45660247167353862 -0.40747031274180939 0 -0.44646247228389868 -0.41654464256061052 0 -0.44646247228389868 -0.41654464256061052 0 -0.4375229199380159 -0.42454468706769971 0 -0.45663439814062529 -0.42533932462455271 0 -0.4375229199380159 -0.42454468706769971 0 -0.4422915115958943 -0.43555510214664611 0 -0.45663439814062529 -0.42533932462455271 0 -0.44646247228389868 -0.41654464256061052 0 -0.4375229199380159 -0.42454468706769971 0 -0.4375229199380159 -0.42454468706769971 0 -0.4422915115958943 -0.43555510214664611 0 -0.43077617074680319 -0.43406335077952207 0 -0.43077617074680319 -0.43406335077952207 0 -0.42550232634077589 -0.42345940056268039 0 -0.41950844772475421 -0.43888456563633732 0 -0.4375229199380159 -0.42454468706769971 0 -0.43077617074680319 -0.43406335077952207 0 -0.42550232634077589 -0.42345940056268039 0 -0.44646247228389868 -0.41654464256061052 0 -0.41657232816672918 -0.41306671883907142 0 -0.42870657106664078 -0.39987574649354879 0 -0.44646247228389868 -0.41654464256061052 0 -0.4375229199380159 -0.42454468706769971 0 -0.42550232634077589 -0.42345940056268039 0 -0.44646247228389868 -0.41654464256061052 0 -0.42550232634077589 -0.42345940056268039 0 -0.41657232816672918 -0.41306671883907142 0 -0.44646247228389868 -0.41654464256061052 0 -0.41657232816672918 -0.41306671883907142 0 -0.42550232634077589 -0.42345940056268039 0 -0.41657232816672918 -0.41306671883907142 0 -0.41333489101611293 -0.42699700567040988 0 -0.41657232816672918 -0.41306671883907142 0 -0.41333489101611293 -0.42699700567040988 0 -0.39893236021425188 -0.42931692235905211 0 -0.41333489101611293 -0.42699700567040988 0 -0.39893236021425188 -0.42931692235905211 0 -0.41950844772475421 -0.43888456563633732 0 -0.42550232634077589 -0.42345940056268039 0 -0.41333489101611293 -0.42699700567040988 0 -0.41950844772475421 -0.43888456563633732 0 -0.43421362475025049 -0.37527491429266319 0 -0.42478231784314502 -0.38643128255249681 0 -0.41656514696884139 -0.37636588688318029 0 -0.43421362475025049 -0.37527491429266319 0 -0.42478231784314502 -0.38643128255249681 0 -0.43479631603355468 -0.39077639303142497 0 -0.42478231784314502 -0.38643128255249681 0 -0.43479631603355468 -0.39077639303142497 0 -0.42870657106664078 -0.39987574649354879 0 -0.44332653075004852 -0.401690115615219 0 -0.43479631603355468 -0.39077639303142497 0 -0.42870657106664078 -0.39987574649354879 0 -0.41657232816672918 -0.41306671883907142 0 -0.40962993039643741 -0.3898634720616666 0 -0.3946356370269814 -0.39577424904278191 0 -0.42478231784314502 -0.38643128255249681 0 -0.42870657106664078 -0.39987574649354879 0 -0.40962993039643741 -0.3898634720616666 0 -0.41657232816672918 -0.41306671883907142 0 -0.42870657106664078 -0.39987574649354879 0 -0.40962993039643741 -0.3898634720616666 0 -0.42478231784314502 -0.38643128255249681 0 -0.40962993039643741 -0.3898634720616666 0 -0.41656514696884139 -0.37636588688318029 0 -0.40962993039643741 -0.3898634720616666 0 -0.41656514696884139 -0.37636588688318029 0 -0.40465459864295228 -0.37650109000307358 0 -0.39431275766669582 -0.38061373190328529 0 -0.40465459864295228 -0.37650109000307358 0 -0.3968495855878465 -0.36923685638487008 0 -0.40962993039643741 -0.3898634720616666 0 -0.39431275766669582 -0.38061373190328529 0 -0.40465459864295228 -0.376501090003
[...]
<PointData Scalars="" Vectors="displacement," Tensors="">
<DataArray type="Float64" Name="displacement" NumberOfComponents="3" format="ascii">
-3.4771049815285418e-07 0.024341026590380264 0 2.3188099226816397e-07 0.024998604727821713 0 -1.129717970397004e-07 0.024980128415407882 0 2.3188099226816397e-07 0.024998604727821713 0 -1.129717970397004e-07 0.024980128415407882 0 -1.1503676831088078e-07 0.025000614405167189 0 -7.9386934276810573e-08 0.024339365962330585 0 2.6182529619634859e-06 0.024652342861941279 0 9.9248883773892053e-08 0.024337322996556901 0 0.00013438940729262121 0.023962215172051878 0 0.00012715049561220465 0.024204717945070089 0 9.9248883773892053e-08 0.024337322996556901 0 0.00013438940729262121 0.023962215172051878 0 7.3353241281524517e-07 0.023300013184631978 0 0.00013438940729262121 0.023962215172051878 0 8.1506312336747017e-05 0.024458522834838112 0 0.00011323990826940708 0.024284504138290315 0 0.00013438940729262121 0.023962215172051878 0 0.00012715049561220465 0.024204717945070089 0 8.1506312336747017e-05 0.024458522834838112 0 2.6182529619634859e-06 0.024652342861941279 0 1.1822046178095109e-07 0.024999411165912675 0 0.00012715049561220465 0.024204717945070089 0 8.5618512465401721e-07 0.024998310507546209 0 8.1506312336747017e-05 0.024458522834838112 0 8.5618512465401721e-07 0.024998310507546209 0 8.1506312336747017e-05 0.024458522834838112 0 8.1206274560668913e-05 0.024681451568445818 0 8.1506312336747017e-05 0.024458522834838112 0 8.1206274560668913e-05 0.024681451568445818 0 0.00011323990826940708 0.024284504138290315 0 0.00012651414181503182 0.024489667261717904 0 8.1206274560668913e-05 0.024681451568445818 0 0.00011323990826940708 0.024284504138290315 0 0.00012651414181503182 0.024489667261717904 0 8.1206274560668913e-05 0.024681451568445818 0 6.3211567277195529e-05 0.024694775931833682 0 8.1206274560668913e-05 0.024681451568445818 0 -2.1817875142606184e-07 0.024999645631948897 0 6.3211567277195529e-05 0.024694775931833682 0 8.5618512465401721e-07 0.024998310507546209 0 8.1206274560668913e-05 0.024681451568445818 0 -2.1817875142606184e-07 0.024999645631948897 0 0.00015833857859330391 0.024256397179223007 0 0.00050687076572736615 0.02384482644130979 0 0.00034258176218249833 0.024166857068350277 0 0.00012651414181503182 0.024489667261717904 0 0.00015833857859330391 0.024256397179223007 0 0.00011323990826940708 0.024284504138290315 0 0.00012651414181503182 0.024489667261717904 0 0.00015833857859330391 0.024256397179223007 0 0.00019944968065386951 0.024401474992378627 0 0.00015833857859330391 0.024256397179223007 0 0.00011323990826940708 0.024284504138290315 0 -0.00018617377558868424 0.024116593519155557 0 0.00015833857859330391 0.024256397179223007 0 -0.00018617377558868424 0.024116593519155557 0 0.00050687076572736615 0.02384482644130979 0 0.00010775031662967778 0.022855863237693366 0 0.00015630149696089422 0.02324391148103723 0 0.00011323990826940708 0.024284504138290315 0 -0.00018617377558868424 0.024116593519155557 0 0.00012443627862992766 0.023599854319123807 0 0.00013438940729262121 0.023962215172051878 0 0.00011323990826940708 0.024284504138290315 0 0.00012443627862992766 0.023599854319123807 0 0.00013438940729262121 0.023962215172051878 0 0.00012443627862992766 0.023599854319123807 0 7.3353241281524517e-07 0.023300013184631978 0 0.00012443627862992766 0.023599854319123807 0 7.3353241281524517e-07 0.023300013184631978 0 -1.384321194533364e-06 0.022263067807304578 0 0.00010775031662967778 0.022855863237693366 0 2.6856869213436991e-07 0.022261301604889254 0 0.00059019592012419673 0.021571450030895487 0 1.6628824195723925e-07 0.022258265253025857 0 0.00024130551427774713 0.021460067795408405 0 -0.00018617377558868424 0.024116593519155557 0 0.00012443627862992766 0.023599854319123807 0 -1.384321194533364e-06 0.022263067807304578 0 1.6628824195723925e-07 0.022258265253025857 0 0.00024130551427774713 0.021460067795408405 0 6.2395978652800244e-07 0.020796845920417664 0 0.00024130551427774713 0.021460067795408405 0 6.2395978652800244e-07 0.020796845920417664 0 2.3494037841240303e-05 0.021296594531767573 0 6.2395978652800244e-07 0.020796845920417664 0 2.3494037841240303e-05 0.021296594531767573 0 -5.8394597623931554e-05 0.020522369922025017 0 0.00059019592012419673 0.021571450030895487 0 0.00024130551427774713 0.021460067795408405 0 2.3494037841240303e-05 0.021296594531767573 0 -1.0947170326681011e-06 0.019331180709181748 0 -0.00046828621233889207 0.020828053196855906 0 -0.00016893053443738394 0.01855812513577371 0 2.6786885734860603e-05 0.019666304544319595 0 1.3393800878114552e-05 0.019492493643560902 0 -1.0947170326681011e-06 0.019331180709181748 0 -5.8394597623931554e-05 0.020522369922025017 0 -0.00046828621233889207 0.020828053196855906 0 6.2395978652800244e-07 0.020796845920417664 0 -1.0947170326681011e-06 0.019331180709181748 0 -5.8394597623931554e-05 0.020522369922025017 0 2.3494037841240303e-05 0.021296594531767573 0 -5.8394597623931554e-05 0.020522369922025017 0 -0.00046828621233889207 0.020828053196855906 0 2.3494037841240303e-05 0.021296594531767573 0 -0.00046828621233889207 0.020828053196855906 0 -0.00045476778570556996 0.022267738181463437 0 -0.00016861379408604238 0.017020980215708616 0 -8.7892885991246113e-05 0.017397935955869293 0 -0.00012013832062487883 0.017081824279349241 0 -0.00016861379408604238 0.017020980215708616 0 -0.00016893053443738394 0.01855812513577371 0 -8.7892885991246113e-05 0.017397935955869293 0 0.00014708234663479925 0.017290516684747806 0 -0.00012013832062487883 0.017081824279349241 0 -0.00016889817104439488 0.017273856908502437 0 -0.00016861379408604238 0.017020980215708616 0 0.00014708234663479925 0.017290516684747806 0 -0.00012013832062487883 0.017081824279349241 0 2.6786885734860603e-05 0.019666304544319595 0 0.00020307005386627425 0.020253079102870948 0 -0.00016861379408604238 0.017020980215708616 0 0.00014708234663479925 0.017290516684747806 0 0.00080814802606407924 0.017204535504096279 0 0.00073571335635785537 0.017632563175748545 0 0.0013081102487119227 0.017512037188321426 0 0.00080608039848472604 0.018207772386125008 0 0.00014708234663479925 0.017290516684747806 0 0.00073571335635785537 0.017632563175748545 0 0.00038263719094172452 0.017922765766433896 0 0.00014708234663479925 0.017290516684747806 0 0.00073571335635785537 0.017632563175748545 0 0.00080814802606407924 0.017204535504096279 0 0.00014708234663479925 0.017290516684747806 0 -0.00012441703544094953 0.017853465020204334 0 0.00038263719094172452 0.017922765766433896 0 0.00014708234663479925 0.017290516684747806 0 -0.00012441703544094953 0.017853465020204334 0 -0.00016889817104439488 0.017273856908502437 0 0.00059019592012419673 0.021571450030895487 0 0.00010229016106323711 0.022525909023365879 0 0.00050687076572736615 0.02384482644130979 0 0.00059019592012419673 0.021571450030895487 0 2.3494037841240303e-05 0.021296594531767573 0 0.00010229016106323711 0.022525909023365879 0 0.00010229016106323711 0.022525909023365879 0 -0.00045476778570556996 0.022267738181463437 0 -0.00028118832797190298 0.023125903674760209 0 2.3494037841240303e-05 0.021296594531767573 0 0.00010229016106323711 0.022525909023365879 0 -0.00045476778570556996 0.022267738181463437 0 0.00073571335635785537 0.017632563175748545 0 0.00080814802606407924 0.017204535504096279 0 0.0013081102487119227 0.017512037188321426 0 0.00020307005386627425 0.020253079102870948 0 0.00030889660087593404 0.020678917338511987 0 0.00030889660087593404 0.020678917338511987 0 0.00052512748602675629 0.021104410593072026 0 0.00010229016106323711 0.022525909023365879 0 0.00023405222606564025 0.023947464117987913 0 0.00050687076572736615 0.02384482644130979 0 0.00010229016106323711 0.022525909023365879 0 -0.00028118832797190298 0.023125903674760209 0 0.00023405222606564025 0.023947464117987913 0 0.00023405222606564025 0.023947464117987913 0 0.00050687076572736615 0.02384482644130979 0 0.00041083978612766267 0.024075661946247131 0 0.00041083978612766267 0.024075661946247131 0 0.00039166713298987525 0.024064297258913799 0 0.0004157281947351916 0.024155263669006406 0 0.00023405222606564025 0.023947464117987913 0 0.00041083978612766267 0.024075661946247131 0 0.00039166713298987525 0.024064297258913799 0 0.0013081102487119227 0.017512037188321426 0 0.0015362058632256018 0.01878796975463087 0 0.00080608039848472604 0.018207772386125008 0 0.00016845432139227909 0.023906490133505289 0 0.00023405222606564025 0.023947464117987913 0 0.00039166713298987525 0.024064297258913799 0 0.00016845432139227909 0.023906490133505289 0 0.00039166713298987525 0.024064297258913799 0 0.00052029269974752902 0.024110316155924114 0 0.00030889660087593404 0.020678917338511987 0 0.00075391371461270304 0.021420940160850829 0 0.00039166713298987525 0.024064297258913799 0 0.00052029269974752902 0.024110316155924114 0 0.00048207024692667461 0.024085576869089576 0 0.00052029269974752902 0.024110316155924114 0 0.00048207024692667461 0.024085576869089576 0 0.00056286367219980247 0.023981557869851077 0 0.00048207024692667461 0.024085576869089576 0 0.00056286367219980247 0.023981557869851077 0 0.0004157281947351916 0.024155263669006406 0 0.00039166713298987525 0.024064297258913799 0 0.00048207024692667461 0.024085576869089576 0 0.0004157281947351916 0.024155263669006406 0 -0.00012441703544094953 0.017853465020204334 0 0.00024406860989247478 0.018348724725674326 0 -0.00018170574887823373 0.018699375426138296 0 -0.00012441703544094953 0.017853465020204334 0 0.00024406860989247478 0.018348724725674326 0 0.00038263719094172452 0.017922765766433896 0 0.00024406860989247478 0.018348724725674326 0 0.00038263719094172452 0.017922765766433896 0 0.00080608039848472604 0.018207772386125008 0 0.00073571335635785537 0.017632563175748545 0 0.00038263719094172452 0.017922765766433896 0 0.00080608039848472604 0.018207772386125008 0 0.0015362058632256018 0.01878796975463087 0 0.00041627434949968061 0.019171007387580045 0 0.00074691267482862079 0.020136712799859766 0 0.00024406860989247478 0.018348724725674326 0 0.00080608039848472604 0.018207772386125008 0 0.00041627434949968061 0.019171007387580045 0 0.0015362058632256018 0.01878796975463087 0 0.00080608039848472604 0.018207772386125008 0 0.00041627434949968061 0.019171007387580045 0 0.00024406860989247478 0.018348724725674326 0 0.00041627434949968061 0.019171007387580045 0 -0.00018170574887823373 0.018699375426138296 0 0.00041627434949968061 0.019171007387580045 0 -0.00018170574887823373 0.018699375426138296 0 -0.00026240977170813079 0.019457141599815958 0 -9.3994822683971668e-05 0.020157582990297285 0 -0.00026240977170813079 0.019457141599815958 0 -0.0007310831049478372 0.019989917677275759 0 0.00041627434949968061 0.019171007387580045 0 -9.3994822683971668e-05 0.020157582990297285 0 -0.00026240977170813079 0.019457141599815958 0 0.00041627434949968061 0.019171007387580045 0 -9.3994822683971668e-05 0.020157582990297285 0 0.00074691267482862079 0.020136712799859766 0 0.00074691267482862079 0.020136712799859766 0 0.0016433036104712272 0.020652929315805625 0 0.00072081663563450227 0.021571306502493434 0 0.00074691267482862079 0.020136712799859766 0 -0.00016094350180384875 0.021489085667185971 0 0.00072081663563450227 0.021571306502493434 0 -9.3994822683971668e-05 0.020157582990297285 0 0.00074691267482862079 0.020136712799859766 0 -0.00016094350180384875 0.021489085667185971 0 -9.3994822683971668e-05 0.020157582990297285 0 -0.00016094350180384875 0.021489085667185971 0 -0.00071799692595387514 0.020766519970866322 0 0.00052029269974752902 0.024110316155924114 0 0.00056286367219980247 0.023981557869851077 0 0.00094478036240322222 0.023803859846818681 0 0.0015362058632256018 0.01878796975463087 0 0.00074691267482862079 0.020136712799859766 0 0.0016433036104712272 0.020652929315805625 0 0.00075391371461270304 0.021420940160850829 0 0.00098174176526093226 0.022082347927570262 0 0.00094478036240322222 0.023803859846818681 0 0.00068399935686987124 0.02367433106484567 0 0.00088177121616482318 0.023218251238009111 0 0.00068399935686987124 0.02367433106484567 0 0.00045245402709265616 0.023761082796330837 0 0.00066550295314616475 0.02340035675895458 0 0.00056286367219980247 0.023981557869851077 0 0.00068399935686987124 0.02367433106484567 0 0.00045245402709265616 0.023761082796330837 0 0.00056286367219980247 0.023981557869851077 0 0.00094478036240322222 0.023803859846818681 0 0.00068399935686987124 0.02367433106484567 0 0.00045245402709265616 0.023761082796330837 0 0.00035425564896630982 0.024119047127793988 0 0.00021538460596947655 0.02393689492057003 0 0.00056286367219980247 0.023981557869851077 0 0.00045245402709265616 0.023761082796330837 0 0.00035425564896630982 0.024119047127793988 0 0.00035425564896630982 0.024119047127793988 0 0.00021538460596947655 0.02393689492057003 0 0.00014217290434929988 0.024234141599757852 0 0.00045245402709265616 0.023761082796330837 0 0.00021538460596947655 0.02393689492057003 0 0.00024854231651184455 0.023619498272661493 0 0.00021538460596947655 0.02393689492057003 0 -1.225618558297481e-05 0.023772274741354647 0 0.00024854231651184455 0.023619498272661493 0 -1.225618558297481e-05 0.023772274741354647 0 -0.00032491693983949536 0.024035128684437072 0 3.0859733491272417e-05 0.024074720811336527 0 0.00021538460596947655 0.02393689492057003 0 -1.225618558297481e-05 0.023772274741354647 0 3.0859733491272417e-05 0.024074720811336527 0 -7.3404026537020754e-06 0.024600440882079539 0 7.7921588738402432e-05 0.024801350070969917 0 -1.4440943872174439e-05 0.025023930370713179 0 1.077840279274632e-09 0.024999562600101007 0 -2.6476205449971388e-08 0.025000289741482034 0 -1.4440943872174439e-05 0.025023930370713179 0 5.5576935937723874e-06 0.024997800380758727 0 -2.6476205449971388e-08 0.025000289741482034 0 -1.225618558297481e-05 0.023772274741354647 0 -0.00032491693983949536 0.024035128684437072 0 -0.00035643607059087306 0.023581132857617371 0 -7.3404026537020754e-06 0.024600440882079539 0 -2.4156805711933309e-05 0.024618535003296003 0 -0.00032491693983949536 0.024035128684437072 0 3.0859733491272417e-05 0.024074720811336527 0 2.5812451656044084e-07 0.02437812633454562 0 -1.4440943872174439e-05 0.025023930370713179 0 1.077840279274632e-09 0.024999562600101007 0 -7.9534718156185576e-05 0.024809028163696425 0 -0.00032491693983949536 0.024035128684437072 0 2.5812451656044084e-07 0.02437812633454562 0 -7.9534718156185576e-05 0.024809028163696425 0 0.00021538460596947655 0.02393689492057003 0 3.0859733491272417e-05 0.024074720811336527 0 0.00014217290434929988 0.024234141599757852 0 3.0859733491272417e-05 0.024074720811336527 0 2.5812451656044084e-07 0.02437812633454562 0 0.00014217290434929988 0.024234141599757852 0 0.00014217290434929988 0.024234141599757852 0 9.600880108148391e-05 0.02454427576573916 0 0.00023485550339990804 0.024324028148200338 0 2.5812451656044084e-07 0.02437812633454562 0 9.600880108148391e-05 0.02454427576573916 0 -7.9534718156185576e-05 0.024809028163696425 0 2.5812451656044084e-07 0.02437812633454562 0 0.00014217290434929988 0.024234141599757852 0 9.600880108148391e-05 0.02454427576573916 0 9.600880108148391e-05 0.02454427576573916 0 -7.9534718156185576e-05 0.024809028163696425 0 1.0227807936646695e-05 0.024769457682895537 0 1.077840279274632e-09 0.024999562600101007 0 -7.9534718156185576e-05 0.024809028163696425 0 -2.1817875142606184e-07 0.024999645631948897 0 -7.9534718156185576e-05 0.024809028163696425 0 1.0227807936646695e-05 0.024769457682895537 0 -2.1817875142606184e-07 0.024999645631948897 0 1.0227807936646695e-05 0.024769457682895537 0 -2.1817875142606184e-07 0.024999645631948897 0 6.3211567277195529e-05 0.024694775931833682 0 0.00012651414181503182 0.024489667261717904 0 6.3211567277195529e-05 0.024694775931833682 0 0.00019944968065386951 0.024401474992378627 0 9.600880108148391e-05 0.02454427576573916 0 6.3211567277195529e-05 0.024694775931833682 0 0.00019944968065386951 0.024401474992378627 0 9.600880108148391e-05 0.02454427576573916 0 1.0227807936646695e-05 0.024769457682895537 0 6.3211567277195529e-05 0.024694775931833682 0 0.00015833857859330391 0.024256397179223007 0 0.00019944968065386951 0.024401474992378627 0 0.00034258176218249833 0.024166857068350277 0 0.00019944968065386951 0.024401474992378627 0 0.00032449307035601049 0.024245260490379193 0 0.00023485550339990804 0.024324028148200338 0 0.00019944968065386951 0.024401474992378627 0 0.00034258176218249833 0.024166857068350277 0 0.00032449307035601049 0.024245260490379193 0 0.00050687076572736615 0.02384482644130979 0 0.00041083978612766267 0.024075661946247131 0 0.00034258176218249833 0.024166857068350277 0 0.00041083978612766267 0.024075661946247131 0 0.00034258176218249833 0.024166857068350277 0 0.0004157281947351916 0.024155263669006406 0 0.00034258176218249833 0.024166857068350277 0 0.00032449307035601049 0.024245260490379193 0 0.0004157281947351916 0.024155263669006406 0 0.00056286367219980247 0.023981557869851077 0 0.00035425564896630982 0.024119047127793988 0 0.0004157281947351916 0.024155263669006406 0 0.00035425564896630982 0.024119047127793988 0 0.00032449307035601049 0.024245260490379193 0 0.0004157281947351916 0.024155263669006406 0 0.00035425564896630982 0.024119047127793988 0 0.00032449307035601049 0.024245260490379193 0 0.00023485550339990804 0.024324028148200338 0 0.00035425564896630982 0.024119047127793988 0 0.00014217290434929988 0.024234141599757852 0 0.00023485550339990804 0.024324028148200338 0 9.600880108148391e-05 0.02454427576573916 0 0.00019944968065386951 0.024401474992378627 0 0.00023485550339990804 0.024324028148200338 0 8.1840192968249631e-05 0.014315454900513499 0 0.00011615358019411726 0.014723467739543248 0 -0.00011707746550852965 0.014624653645481515 0 8.1840192968249631e-05 0.014315454900513499 0 0.0002461403039023956 0.014679063859016546 0 0.00011615358019411726 0.014723467739543248 0 8.1840192968249631e-05 0.014315454900513499 0 -0.00011707746550852965 0.014624653645481515 0 -0.00013272920754350356 0.014194208543832364 0 8.1840192968249631e-05 0.014315454900513499 0 0.0002461403039023956 0.014679063859016546 0 0.00024906824985202467 0.014318386375562684 0 0.0002461403039023956 0.014679063859016546 0 0.00024906824985202467 0.014318386375562684 0 0.00030635261028275637 0.01484064792487238 0 0.00024906824985202467 0.014318386375562684 0 7.7934220021843805e-05 0.013304334313918156 0 -3.6178018554203968e-05 0.013769254376452865 0 8.1840192968249631e-05 0.014315454900513499 0 0.00024906824985202467 0.014318386375562684 0 -3.6178018554203968e-05 0.013769254376452865 0 8.1840192968249631e-05 0.014315454900513499 0 -3.6178018554203968e-05 0.013769254376452865 0 -0.00013272920754350356 0.014194208543832364 0 7.7934220021843805e-05 0.013304334313918156 0 2.6393610155424368e-07 0.01347282347974854 0 1.9504670644757902e-07 0.012007553829308461 0 7.7934220021843805e-05 0.013304334313918156 0 2.6393610155424368e-07 0.01347282347974854 0 0.00016767703684222773 0.014261905473966172 0 0.00024906824985202467 0.014318386375562684 0 7.7934220021843805e-05 0.013304334313918156 0 0.00016767703684222773 0.014261905473966172 0 0.00024906824985202467 0.014318386375562684 0 0.00016767703684222773 0.014261905473966172 0 0.00023409878437957114 0.015011037327365289 0 0.00016767703684222773 0.014261905473966172 0 3.9961045332417583e-07 0.014937294265517298 0 0.00023409878437957114 0.015011037327365289 0 2.6393610155424368e-07 0.01347282347974854 0 0.00016767703684222773 0.014261905473966172 0 3.9961045332417583e-07 0.014937294265517298 0 3.9961045332417583e-07 0.014937294265517298 0 0.00023409878437957114 0.015011037327365289 0 5.2779064515282199e-05 0.015939391207346061 0 0.00023409878437957114 0.015011037327365289 0 0.00030635261028275637 0.01484064792487238 0 9.8891065551114286e-05 0.015445137195678076 0 0.00024906824985202467 0.014318386375562684 0 0.00023409878437957114 0.015011037327365289 0 0.00030635261028275637 0.01484064792487238 0 0.0002461403039023956 0.014679063859016546 0 0.00030635261028275637 0.01484064792487238 0 0.0002854719124674