<?xml version="1.0"?>
<VTKFile type="UnstructuredGrid" version="0.1" byte_order="LittleEndian">
<UnstructuredGrid>
<Piece NumberOfPoints="30881" NumberOfCells="10862">
<Points>
<DataArray type="Float64" NumberOfComponents="3" format="ascii">
-0.49999999999999828 -0.48677703703187492 0 -0.5 -0.5 0 -0.48129281494584059 -0.49338851851593718 0 -0.5 -0.5 0 -0.48129281494584059 -0.49338851851593718 0 -0.46258562989168328 -0.5 0 -0.49999999999999828 -0.48677703703187492 0 -0.48129281494584059 -0.49338851851593718 0 -0.49999999999999828 -0.48677703703187492 0 -0.4824545428279598 -0.47451624516148783 0 -0.48129281494584059 -0.49338851851593718 0 -0.49999999999999828 -0.48677703703187492 0 -0.4824545428279598 -0.47451624516148783 0 -0.5 -0.46599539173150673 0 -0.4824545428279598 -0.47451624516148783 0 -0.46853075243710779 -0.48354990242643758 0 -0.46411508256092049 -0.46598235294430129 0 -0.4824545428279598 -0.47451624516148783 0 -0.48129281494584059 -0.49338851851593718 0 -0.46853075243710779 -0.48354990242643758 0 -0.48129281494584059 -0.49338851851593718 0 -0.46258562989168328 -0.5 0 -0.48129281494584059 -0.49338851851593718 0 -0.46258562989168328 -0.5 0 -0.46853075243710779 -0.48354990242643758 0 -0.46258562989168328 -0.5 0 -0.46853075243710779 -0.48354990242643758 0 -0.45147378687733691 -0.48362213557840178 0 -0.46853075243710779 -0.48354990242643758 0 -0.45147378687733691 -0.48362213557840178 0 -0.46411508256092049 -0.46598235294430129 0 -0.4457251648104853 -0.47020164095208389 0 -0.45147378687733691 -0.48362213557840178 0 -0.46411508256092049 -0.46598235294430129 0 -0.4457251648104853 -0.47020164095208389 0 -0.45147378687733691 -0.48362213557840178 0 -0.43513446131126993 -0.48199891714758791 0 -0.45147378687733691 -0.48362213557840178 0 -0.43275163025255442 -0.5 0 -0.43513446131126993 -0.48199891714758791 0 -0.46258562989168328 -0.5 0 -0.45147378687733691 -0.48362213557840178 0 -0.43275163025255442 -0.5 0 -0.4467190029717853 -0.45478934699519452 0 -0.4422915115958943 -0.43555510214664611 0 -0.43246707723660932 -0.44794326854796312 0 -0.4457251648104853 -0.47020164095208389 0 -0.4467190029717853 -0.45478934699519452 0 -0.46411508256092049 -0.46598235294430129 0 -0.4457251648104853 -0.47020164095208389 0 -0.4467190029717853 -0.45478934699519452 0 -0.43016578207734568 -0.46313500011938619 0 -0.4467190029717853 -0.45478934699519452 0 -0.46411508256092049 -0.46598235294430129 0 -0.47114575579794699 -0.4403844242888923 0 -0.4467190029717853 -0.45478934699519452 0 -0.47114575579794699 -0.4403844242888923 0 -0.4422915115958943 -0.43555510214664611 0 -0.47114575579794699 -0.4403844242888923 0 -0.4422915115958943 -0.43555510214664611 0 -0.46411508256092049 -0.46598235294430129 0 -0.47114575579794699 -0.4403844242888923 0 -0.48354307623736548 -0.45841843211146538 0 -0.4824545428279598 -0.47451624516148783 0 -0.46411508256092049 -0.46598235294430129 0 -0.48354307623736548 -0.45841843211146538 0 -0.4824545428279598 -0.47451624516148783 0 -0.48354307623736548 -0.45841843211146538 0 -0.5 -0.46599539173150673 0 -0.48354307623736548 -0.45841843211146538 0 -0.5 -0.46599539173150673 0 -0.49999999999999972 -0.44521374643113848 0 -0.47114575579794699 -0.4403844242888923 0 -0.49999999999999972 -0.44521374643113848 0 -0.47114575579794699 -0.4403844242888923 0 -0.49999999999999972 -0.44521374643113848 0 -0.48704432221743971 -0.42935617662229603 0 -0.47114575579794699 -0.4403844242888923 0 -0.48354307623736548 -0.45841843211146538 0 -0.49999999999999972 -0.44521374643113848 0 -0.49999999999999972 -0.44521374643113848 0 -0.48704432221743971 -0.42935617662229603 0 -0.5 -0.41591957503128979 0 -0.48704432221743971 -0.42935617662229603 0 -0.5 -0.41591957503128979 0 -0.47703153307181151 -0.41590696073786332 0 -0.5 -0.41591957503128979 0 -0.47703153307181151 -0.41590696073786332 0 -0.48817838912021821 -0.4022119694541284 0 -0.47114575579794699 -0.4403844242888923 0 -0.48704432221743971 -0.42935617662229603 0 -0.47703153307181151 -0.41590696073786332 0 -0.5 -0.38662540363144121 0 -0.47568202340906118 -0.39039593841591919 0 -0.4947615751445838 -0.37332156409002909 0 -0.47568202340906118 -0.39039593841591919 0 -0.4947615751445838 -0.37332156409002909 0 -0.5 -0.38662540363144121 0 -0.48817838912021821 -0.4022119694541284 0 -0.47568202340906118 -0.39039593841591919 0 -0.5 -0.41591957503128979 0 -0.5 -0.38662540363144121 0 -0.48817838912021821 -0.4022119694541284 0 -0.47703153307181151 -0.41590696073786332 0 -0.48817838912021821 -0.4022119694541284 0 -0.47568202340906118 -0.39039593841591919 0 -0.47703153307181151 -0.41590696073786332 0 -0.47568202340906118 -0.39039593841591919 0 -0.45660247167353862 -0.40747031274180939 0 -0.47568202340906118 -0.39039593841591919 0 -0.48030931097003587 -0.37191064435083931 0 -0.46669490250066459 -0.37481721741951951 0 -0.47568202340906118 -0.39039593841591919 0 -0.4947615751445838 -0.37332156409002909 0 -0.48030931097003587 -0.37191064435083931 0 -0.45332061783919553 -0.38729481725706361 0 -0.46669490250066459 -0.37481721741951951 0 -0.45095991715087752 -0.36968037302039969 0 -0.47568202340906118 -0.39039593841591919 0 -0.45332061783919553 -0.38729481725706361 0 -0.46669490250066459 -0.37481721741951951 0 -0.47568202340906118 -0.39039593841591919 0 -0.45660247167353862 -0.40747031274180939 0 -0.47568202340906118 -0.39039593841591919 0 -0.45332061783919553 -0.38729481725706361 0 -0.45660247167353862 -0.40747031274180939 0 -0.44332653075004852 -0.401690115615219 0 -0.44646247228389868 -0.41654464256061052 0 -0.42870657106664078 -0.39987574649354879 0 -0.45332061783919553 -0.38729481725706361 0 -0.44332653075004852 -0.401690115615219 0 -0.43479631603355468 -0.39077639303142497 0 -0.45332061783919553 -0.38729481725706361 0 -0.44332653075004852 -0.401690115615219 0 -0.45660247167353862 -0.40747031274180939 0 -0.45332061783919553 -0.38729481725706361 0 -0.43421362475025049 -0.37527491429266319 0 -0.43479631603355468 -0.39077639303142497 0 -0.45332061783919553 -0.38729481725706361 0 -0.43421362475025049 -0.37527491429266319 0 -0.45095991715087752 -0.36968037302039969 0 -0.47114575579794699 -0.4403844242888923 0 -0.45663439814062529 -0.42533932462455271 0 -0.4422915115958943 -0.43555510214664611 0 -0.47114575579794699 -0.4403844242888923 0 -0.47703153307181151 -0.41590696073786332 0 -0.45663439814062529 -0.42533932462455271 0 -0.45663439814062529 -0.42533932462455271 0 -0.45660247167353862 -0.40747031274180939 0 -0.44646247228389868 -0.41654464256061052 0 -0.47703153307181151 -0.41590696073786332 0 -0.45663439814062529 -0.42533932462455271 0 -0.45660247167353862 -0.40747031274180939 0 -0.44332653075004852 -0.401690115615219 0 -0.45660247167353862 -0.40747031274180939 0 -0.44646247228389868 -0.41654464256061052 0 -0.45660247167353862 -0.40747031274180939 0 -0.44646247228389868 -0.41654464256061052 0 -0.44646247228389868 -0.41654464256061052 0 -0.4375229199380159 -0.42454468706769971 0 -0.45663439814062529 -0.42533932462455271 0 -0.4375229199380159 -0.42454468706769971 0 -0.4422915115958943 -0.43555510214664611 0 -0.45663439814062529 -0.42533932462455271 0 -0.44646247228389868 -0.41654464256061052 0 -0.4375229199380159 -0.42454468706769971 0 -0.4375229199380159 -0.42454468706769971 0 -0.4422915115958943 -0.43555510214664611 0 -0.43077617074680319 -0.43406335077952207 0 -0.43077617074680319 -0.43406335077952207 0 -0.42550232634077589 -0.42345940056268039 0 -0.41950844772475421 -0.43888456563633732 0 -0.4375229199380159 -0.42454468706769971 0 -0.43077617074680319 -0.43406335077952207 0 -0.42550232634077589 -0.42345940056268039 0 -0.44646247228389868 -0.41654464256061052 0 -0.41657232816672918 -0.41306671883907142 0 -0.42870657106664078 -0.39987574649354879 0 -0.44646247228389868 -0.41654464256061052 0 -0.4375229199380159 -0.42454468706769971 0 -0.42550232634077589 -0.42345940056268039 0 -0.44646247228389868 -0.41654464256061052 0 -0.42550232634077589 -0.42345940056268039 0 -0.41657232816672918 -0.41306671883907142 0 -0.44646247228389868 -0.41654464256061052 0 -0.41657232816672918 -0.41306671883907142 0 -0.42550232634077589 -0.42345940056268039 0 -0.41657232816672918 -0.41306671883907142 0 -0.41333489101611293 -0.42699700567040988 0 -0.41657232816672918 -0.41306671883907142 0 -0.41333489101611293 -0.42699700567040988 0 -0.39893236021425188 -0.42931692235905211 0 -0.41333489101611293 -0.42699700567040988 0 -0.39893236021425188 -0.42931692235905211 0 -0.41950844772475421 -0.43888456563633732 0 -0.42550232634077589 -0.42345940056268039 0 -0.41333489101611293 -0.42699700567040988 0 -0.41950844772475421 -0.43888456563633732 0 -0.43421362475025049 -0.37527491429266319 0 -0.42478231784314502 -0.38643128255249681 0 -0.41656514696884139 -0.37636588688318029 0 -0.43421362475025049 -0.37527491429266319 0 -0.42478231784314502 -0.38643128255249681 0 -0.43479631603355468 -0.39077639303142497 0 -0.42478231784314502 -0.38643128255249681 0 -0.43479631603355468 -0.39077639303142497 0 -0.42870657106664078 -0.39987574649354879 0 -0.44332653075004852 -0.401690115615219 0 -0.43479631603355468 -0.39077639303142497 0 -0.42870657106664078 -0.39987574649354879 0 -0.41657232816672918 -0.41306671883907142 0 -0.40962993039643741 -0.3898634720616666 0 -0.3946356370269814 -0.39577424904278191 0 -0.42478231784314502 -0.38643128255249681 0 -0.42870657106664078 -0.39987574649354879 0 -0.40962993039643741 -0.3898634720616666 0 -0.41657232816672918 -0.41306671883907142 0 -0.42870657106664078 -0.39987574649354879 0 -0.40962993039643741 -0.3898634720616666 0 -0.42478231784314502 -0.38643128255249681 0 -0.40962993039643741 -0.3898634720616666 0 -0.41656514696884139 -0.37636588688318029 0 -0.40962993039643741 -0.3898634720616666 0 -0.41656514696884139 -0.37636588688318029 0 -0.40465459864295228 -0.37650109000307358 0 -0.39431275766669582 -0.38061373190328529 0 -0.40465459864295228 -0.37650109000307358 0 -0.3968495855878465 -0.36923685638487008 0 -0.40962993039643741 -0.3898634720616666 0 -0.39431275766669582 -0.38061373190328529 0 -0.40465459864295228 -0.376501090003
[...]
<PointData Scalars="" Vectors="displacement," Tensors="">
<DataArray type="Float64" Name="displacement" NumberOfComponents="3" format="ascii">
0.024999850128983286 -6.9029368391490489e-08 0 0.024999505040882216 1.3945355161540849e-07 0 0.024251621316874458 -2.3435893804381044e-08 0 0.024999505040882216 1.3945355161540849e-07 0 0.024251621316874458 -2.3435893804381044e-08 0 0.023130419822554767 -2.0944798196103714e-07 0 0.024997788234655156 3.610880435901304e-07 0 0.024079495675882964 3.3463112436958237e-05 0 0.02499857626681275 4.370517028308634e-07 0 0.024383941280612081 0.00017956783977999364 0 0.024016567448395362 0.00021247190849999598 0 0.02499857626681275 4.370517028308634e-07 0 0.024383941280612081 0.00017956783977999364 0 0.024999630320159481 3.1899827346908857e-08 0 0.024383941280612081 0.00017956783977999364 0 0.023748573660669684 0.00015135083482926092 0 0.023952872345968278 0.00020678113247000394 0 0.024383941280612081 0.00017956783977999364 0 0.024016567448395362 0.00021247190849999598 0 0.023748573660669684 0.00015135083482926092 0 0.024079495675882964 3.3463112436958237e-05 0 0.023131559392311679 -2.3818237518451908e-07 0 0.024016567448395362 0.00021247190849999598 0 0.023128950734589957 7.9874134225692565e-07 0 0.023748573660669684 0.00015135083482926092 0 0.023128950734589957 7.9874134225692565e-07 0 0.023748573660669684 0.00015135083482926092 0 0.023135215148016471 0.00013451832388841051 0 0.023748573660669684 0.00015135083482926092 0 0.023135215148016471 0.00013451832388841051 0 0.023952872345968278 0.00020678113247000394 0 0.023374891684544589 0.00011399207438400489 0 0.023135215148016471 0.00013451832388841051 0 0.023952872345968278 0.00020678113247000394 0 0.023374891684544589 0.00011399207438400489 0 0.023135215148016471 0.00013451832388841051 0 0.022665345892640042 4.6361980793520272e-05 0 0.023135215148016471 0.00013451832388841051 0 0.021638779895454797 1.6781594392916156e-07 0 0.022665345892640042 4.6361980793520272e-05 0 0.023128950734589957 7.9874134225692565e-07 0 0.023135215148016471 0.00013451832388841051 0 0.021638779895454797 1.6781594392916156e-07 0 0.023782358605347241 0.00010015540155287941 0 0.024126872519138521 -1.6415172322454664e-05 0 0.023757495242575127 -9.5050239947733713e-05 0 0.023374891684544589 0.00011399207438400489 0 0.023782358605347241 0.00010015540155287941 0 0.023952872345968278 0.00020678113247000394 0 0.023374891684544589 0.00011399207438400489 0 0.023782358605347241 0.00010015540155287941 0 0.023330794030583381 -7.3322659697464733e-05 0 0.023782358605347241 0.00010015540155287941 0 0.023952872345968278 0.00020678113247000394 0 0.024270378059599064 0.000243185947253551 0 0.023782358605347241 0.00010015540155287941 0 0.024270378059599064 0.000243185947253551 0 0.024126872519138521 -1.6415172322454664e-05 0 0.024707169279982594 9.2732989641492255e-05 0 0.024588125986496189 2.6144430743590545e-05 0 0.023952872345968278 0.00020678113247000394 0 0.024270378059599064 0.000243185947253551 0 0.024532649821309892 0.00015109179041352639 0 0.024383941280612081 0.00017956783977999364 0 0.023952872345968278 0.00020678113247000394 0 0.024532649821309892 0.00015109179041352639 0 0.024383941280612081 0.00017956783977999364 0 0.024532649821309892 0.00015109179041352639 0 0.024999630320159481 3.1899827346908857e-08 0 0.024532649821309892 0.00015109179041352639 0 0.024999630320159481 3.1899827346908857e-08 0 0.024998943649394152 2.086060405703369e-07 0 0.024707169279982594 9.2732989641492255e-05 0 0.024999458464529493 1.7109263679619409e-07 0 0.02471617875766477 5.9740910734440168e-05 0 0.024999821181894821 2.5490216970756321e-08 0 0.024881541892222619 3.2406546296375495e-05 0 0.024270378059599064 0.000243185947253551 0 0.024532649821309892 0.00015109179041352639 0 0.024998943649394152 2.086060405703369e-07 0 0.024999821181894821 2.5490216970756321e-08 0 0.024881541892222619 3.2406546296375495e-05 0 0.024999772430119995 6.2868692495178108e-08 0 0.024881541892222619 3.2406546296375495e-05 0 0.024999772430119995 6.2868692495178108e-08 0 0.024809322517725614 5.5125841258950066e-05 0 0.024999772430119995 6.2868692495178108e-08 0 0.024809322517725614 5.5125841258950066e-05 0 0.024939204725696044 3.7094687914556158e-05 0 0.02471617875766477 5.9740910734440168e-05 0 0.024881541892222619 3.2406546296375495e-05 0 0.024809322517725614 5.5125841258950066e-05 0 0.024999784745042723 4.966317720803644e-08 0 0.024941574805686768 4.2350647427514553e-05 0 0.02490296054345385 3.2741435755871765e-05 0 0.024446222954557385 -0.00013202217171327159 0 0.024548719344976461 -6.6641961454176014e-05 0 0.024999784745042723 4.966317720803644e-08 0 0.024939204725696044 3.7094687914556158e-05 0 0.024941574805686768 4.2350647427514553e-05 0 0.024999772430119995 6.2868692495178108e-08 0 0.024999784745042723 4.966317720803644e-08 0 0.024939204725696044 3.7094687914556158e-05 0 0.024809322517725614 5.5125841258950066e-05 0 0.024939204725696044 3.7094687914556158e-05 0 0.024941574805686768 4.2350647427514553e-05 0 0.024809322517725614 5.5125841258950066e-05 0 0.024941574805686768 4.2350647427514553e-05 0 0.024749728284463209 -1.0373164132084134e-06 0 0.024073118782581351 -0.00010863096092574922 0 0.024632630588467382 -7.8770568233756685e-05 0 0.024385454535015946 -0.00028198732629671169 0 0.024073118782581351 -0.00010863096092574922 0 0.02490296054345385 3.2741435755871765e-05 0 0.024632630588467382 -7.8770568233756685e-05 0 0.023986894636299164 -0.00056242117979793307 0 0.024385454535015946 -0.00028198732629671169 0 0.024281819500232192 -0.00053628479088036038 0 0.024073118782581351 -0.00010863096092574922 0 0.023986894636299164 -0.00056242117979793307 0 0.024385454535015946 -0.00028198732629671169 0 0.024446222954557385 -0.00013202217171327159 0 0.024259808206988063 -0.00028692495595449366 0 0.024073118782581351 -0.00010863096092574922 0 0.023986894636299164 -0.00056242117979793307 0 0.023592924436872494 -0.00051954651169517263 0 0.023673559877074223 -0.00076507489593408595 0 0.023465826771565102 -0.00073012530663723934 0 0.023677948772456305 -0.00097766079039232775 0 0.023986894636299164 -0.00056242117979793307 0 0.023673559877074223 -0.00076507489593408595 0 0.023782051040279077 -0.00089130711116188355 0 0.023986894636299164 -0.00056242117979793307 0 0.023673559877074223 -0.00076507489593408595 0 0.023592924436872494 -0.00051954651169517263 0 0.023986894636299164 -0.00056242117979793307 0 0.023966491504849953 -0.00087959731289662178 0 0.023782051040279077 -0.00089130711116188355 0 0.023986894636299164 -0.00056242117979793307 0 0.023966491504849953 -0.00087959731289662178 0 0.024281819500232192 -0.00053628479088036038 0 0.02471617875766477 5.9740910734440168e-05 0 0.024525363114120693 3.8562381668285519e-05 0 0.024126872519138521 -1.6415172322454664e-05 0 0.02471617875766477 5.9740910734440168e-05 0 0.024809322517725614 5.5125841258950066e-05 0 0.024525363114120693 3.8562381668285519e-05 0 0.024525363114120693 3.8562381668285519e-05 0 0.024749728284463209 -1.0373164132084134e-06 0 0.024548958765728889 -6.052756042115148e-05 0 0.024809322517725614 5.5125841258950066e-05 0 0.024525363114120693 3.8562381668285519e-05 0 0.024749728284463209 -1.0373164132084134e-06 0 0.023673559877074223 -0.00076507489593408595 0 0.023592924436872494 -0.00051954651169517263 0 0.023465826771565102 -0.00073012530663723934 0 0.024259808206988063 -0.00028692495595449366 0 0.024163318878927722 -0.00038980724409372141 0 0.024163318878927722 -0.00038980724409372141 0 0.024213411870617218 -0.00032481160957240589 0 0.024525363114120693 3.8562381668285519e-05 0 0.024214994970031409 -0.00011697604759161695 0 0.024126872519138521 -1.6415172322454664e-05 0 0.024525363114120693 3.8562381668285519e-05 0 0.024548958765728889 -6.052756042115148e-05 0 0.024214994970031409 -0.00011697604759161695 0 0.024214994970031409 -0.00011697604759161695 0 0.024126872519138521 -1.6415172322454664e-05 0 0.024009179814380791 -0.00015605293293256744 0 0.024009179814380791 -0.00015605293293256744 0 0.024096130667967137 -0.00022554492726482885 0 0.02381274728923858 -0.00028759985290000109 0 0.024214994970031409 -0.00011697604759161695 0 0.024009179814380791 -0.00015605293293256744 0 0.024096130667967137 -0.00022554492726482885 0 0.023465826771565102 -0.00073012530663723934 0 0.02361517781496918 -0.0010890704153248979 0 0.023677948772456305 -0.00097766079039232775 0 0.024282583568014455 -3.904155222764921e-05 0 0.024214994970031409 -0.00011697604759161695 0 0.024096130667967137 -0.00022554492726482885 0 0.024282583568014455 -3.904155222764921e-05 0 0.024096130667967137 -0.00022554492726482885 0 0.024110518688425498 -0.00032895651834782336 0 0.024163318878927722 -0.00038980724409372141 0 0.023969691604952412 -0.00056163741297969756 0 0.024096130667967137 -0.00022554492726482885 0 0.024110518688425498 -0.00032895651834782336 0 0.023941537424847423 -0.00037279153151597303 0 0.024110518688425498 -0.00032895651834782336 0 0.023941537424847423 -0.00037279153151597303 0 0.02381461708780926 -0.00055607970347459662 0 0.023941537424847423 -0.00037279153151597303 0 0.02381461708780926 -0.00055607970347459662 0 0.02381274728923858 -0.00028759985290000109 0 0.024096130667967137 -0.00022554492726482885 0 0.023941537424847423 -0.00037279153151597303 0 0.02381274728923858 -0.00028759985290000109 0 0.023966491504849953 -0.00087959731289662178 0 0.02373732211177302 -0.0010261910148367697 0 0.02370064784580278 -0.0011476554945941985 0 0.023966491504849953 -0.00087959731289662178 0 0.02373732211177302 -0.0010261910148367697 0 0.023782051040279077 -0.00089130711116188355 0 0.02373732211177302 -0.0010261910148367697 0 0.023782051040279077 -0.00089130711116188355 0 0.023677948772456305 -0.00097766079039232775 0 0.023673559877074223 -0.00076507489593408595 0 0.023782051040279077 -0.00089130711116188355 0 0.023677948772456305 -0.00097766079039232775 0 0.02361517781496918 -0.0010890704153248979 0 0.023631888242999582 -0.0011137043105513263 0 0.023617235071455623 -0.0010018531851043522 0 0.02373732211177302 -0.0010261910148367697 0 0.023677948772456305 -0.00097766079039232775 0 0.023631888242999582 -0.0011137043105513263 0 0.02361517781496918 -0.0010890704153248979 0 0.023677948772456305 -0.00097766079039232775 0 0.023631888242999582 -0.0011137043105513263 0 0.02373732211177302 -0.0010261910148367697 0 0.023631888242999582 -0.0011137043105513263 0 0.02370064784580278 -0.0011476554945941985 0 0.023631888242999582 -0.0011137043105513263 0 0.02370064784580278 -0.0011476554945941985 0 0.02352343445714716 -0.0011509089883730691 0 0.02344142085139804 -0.0010117532400595766 0 0.02352343445714716 -0.0011509089883730691 0 0.023292436064697455 -0.001074635990174084 0 0.023631888242999582 -0.0011137043105513263 0 0.02344142085139804 -0.0010117532400595766 0 0.02352343445714716 -0.0011509089883730691 0 0.023631888242999582 -0.0011137043105513263 0 0.02344142085139804 -0.0010117532400595766 0 0.023617235071455623 -0.0010018531851043522 0 0.023617235071455623 -0.0010018531851043522 0 0.023733559472381795 -0.00089887838575639111 0 0.023569299505532142 -0.00068945519639178636 0 0.023617235071455623 -0.0010018531851043522 0 0.023281536106943255 -0.00065708104060247701 0 0.023569299505532142 -0.00068945519639178636 0 0.02344142085139804 -0.0010117532400595766 0 0.023617235071455623 -0.0010018531851043522 0 0.023281536106943255 -0.00065708104060247701 0 0.02344142085139804 -0.0010117532400595766 0 0.023281536106943255 -0.00065708104060247701 0 0.023138299809206397 -0.00084009732581061562 0 0.024110518688425498 -0.00032895651834782336 0 0.02381461708780926 -0.00055607970347459662 0 0.023875588124939652 -0.00067838934468427206 0 0.02361517781496918 -0.0010890704153248979 0 0.023617235071455623 -0.0010018531851043522 0 0.023733559472381795 -0.00089887838575639111 0 0.023969691604952412 -0.00056163741297969756 0 0.023872081797304344 -0.00063498575682278708 0 0.023875588124939652 -0.00067838934468427206 0 0.023760342819989119 -0.00069909260859236401 0 0.023744595672306624 -0.00064257402910137466 0 0.023760342819989119 -0.00069909260859236401 0 0.023539389137870372 -0.00075109738124698434 0 0.023675253661643379 -0.00075222651873904157 0 0.02381461708780926 -0.00055607970347459662 0 0.023760342819989119 -0.00069909260859236401 0 0.023539389137870372 -0.00075109738124698434 0 0.02381461708780926 -0.00055607970347459662 0 0.023875588124939652 -0.00067838934468427206 0 0.023760342819989119 -0.00069909260859236401 0 0.023539389137870372 -0.00075109738124698434 0 0.023466133052918406 -0.00050684768962362637 0 0.023087767090722883 -0.00076882839395070305 0 0.02381461708780926 -0.00055607970347459662 0 0.023539389137870372 -0.00075109738124698434 0 0.023466133052918406 -0.00050684768962362637 0 0.023466133052918406 -0.00050684768962362637 0 0.023087767090722883 -0.00076882839395070305 0 0.022863021552563461 -0.00056726480218658966 0 0.023539389137870372 -0.00075109738124698434 0 0.023087767090722883 -0.00076882839395070305 0 0.023201600101551145 -0.0009287935478162054 0 0.023087767090722883 -0.00076882839395070305 0 0.022709151260858772 -0.00096053904895408975 0 0.023201600101551145 -0.0009287935478162054 0 0.022709151260858772 -0.00096053904895408975 0 0.022180076569837278 -0.00085528814581141508 0 0.022622537727917006 -0.00076690287650636193 0 0.023087767090722883 -0.00076882839395070305 0 0.022709151260858772 -0.00096053904895408975 0 0.022622537727917006 -0.00076690287650636193 0 0.019567749477811237 7.4029899711407134e-05 0 0.018724453947010951 -0.00039294198634382189 0 0.019631823691162804 -8.3826536735309857e-06 0 0.020146542083417419 -6.9932629121487764e-07 0 0.018654808798420536 1.596123857817206e-07 0 0.019631823691162804 -8.3826536735309857e-06 0 0.0187298378699308 -3.4359643372324716e-05 0 0.018654808798420536 1.596123857817206e-07 0 0.022709151260858772 -0.00096053904895408975 0 0.022180076569837278 -0.00085528814581141508 0 0.022342797779217011 -0.0011615932644294226 0 0.019567749477811237 7.4029899711407134e-05 0 0.019856720947633882 0.00032705210072896964 0 0.022180076569837278 -0.00085528814581141508 0 0.022622537727917006 -0.00076690287650636193 0 0.022310524477291333 -0.00056775796796471783 0 0.019631823691162804 -8.3826536735309857e-06 0 0.020146542083417419 -6.9932629121487764e-07 0 0.021394744301458702 -0.00012342101868383486 0 0.022180076569837278 -0.00085528814581141508 0 0.022310524477291333 -0.00056775796796471783 0 0.021394744301458702 -0.00012342101868383486 0 0.023087767090722883 -0.00076882839395070305 0 0.022622537727917006 -0.00076690287650636193 0 0.022863021552563461 -0.00056726480218658966 0 0.022622537727917006 -0.00076690287650636193 0 0.022310524477291333 -0.00056775796796471783 0 0.022863021552563461 -0.00056726480218658966 0 0.022863021552563461 -0.00056726480218658966 0 0.022673002920692211 -0.00019074200699480766 0 0.023206218813714513 -0.00031372432938036677 0 0.022310524477291333 -0.00056775796796471783 0 0.022673002920692211 -0.00019074200699480766 0 0.021394744301458702 -0.00012342101868383486 0 0.022310524477291333 -0.00056775796796471783 0 0.022863021552563461 -0.00056726480218658966 0 0.022673002920692211 -0.00019074200699480766 0 0.022673002920692211 -0.00019074200699480766 0 0.021394744301458702 -0.00012342101868383486 0 0.022057527000702331 -4.7473261744605846e-05 0 0.020146542083417419 -6.9932629121487764e-07 0 0.021394744301458702 -0.00012342101868383486 0 0.021638779895454797 1.6781594392916156e-07 0 0.021394744301458702 -0.00012342101868383486 0 0.022057527000702331 -4.7473261744605846e-05 0 0.021638779895454797 1.6781594392916156e-07 0 0.022057527000702331 -4.7473261744605846e-05 0 0.021638779895454797 1.6781594392916156e-07 0 0.022665345892640042 4.6361980793520272e-05 0 0.023374891684544589 0.00011399207438400489 0 0.022665345892640042 4.6361980793520272e-05 0 0.023330794030583381 -7.3322659697464733e-05 0 0.022673002920692211 -0.00019074200699480766 0 0.022665345892640042 4.6361980793520272e-05 0 0.023330794030583381 -7.3322659697464733e-05 0 0.022673002920692211 -0.00019074200699480766 0 0.022057527000702331 -4.7473261744605846e-05 0 0.022665345892640042 4.6361980793520272e-05 0 0.023782358605347241 0.00010015540155287941 0 0.023330794030583381 -7.3322659697464733e-05 0 0.023757495242575127 -9.5050239947733713e-05 0 0.023330794030583381 -7.3322659697464733e-05 0 0.023539123079933614 -0.00025156723028609186 0 0.023206218813714513 -0.00031372432938036677 0 0.023330794030583381 -7.3322659697464733e-05 0 0.023757495242575127 -9.5050239947733713e-05 0 0.023539123079933614 -0.00025156723028609186 0 0.024126872519138521 -1.6415172322454664e-05 0 0.024009179814380791 -0.00015605293293256744 0 0.023757495242575127 -9.5050239947733713e-05 0 0.024009179814380791 -0.00015605293293256744 0 0.023757495242575127 -9.5050239947733713e-05 0 0.02381274728923858 -0.00028759985290000109 0 0.023757495242575127 -9.5050239947733713e-05 0 0.023539123079933614 -0.00025156723028609186 0 0.02381274728923858 -0.00028759985290000109 0 0.02381461708780926 -0.00055607970347459662 0 0.023466133052918406 -0.00050684768962362637 0 0.02381274728923858 -0.00028759985290000109 0 0.023466133052918406 -0.00050684768962362637 0 0.023539123079933614 -0.00025156723028609186 0 0.02381274728923858 -0.00028759985290000109 0 0.023466133052918406 -0.00050684768962362637 0 0.023539123079933614 -0.00025156723028609186 0 0.023206218813714513 -0.00031372432938036677 0 0.023466133052918406 -0.00050684768962362637 0 0.022863021552563461 -0.00056726480218658966 0 0.023206218813714513 -0.00031372432938036677 0 0.022673002920692211 -0.00019074200699480766 0 0.023330794030583381 -7.3322659697464733e-05 0 0.023206218813714513 -0.00031372432938036677 0 0.024920981111276837 2.2794059022161398e-05 0 0.024925683675963223 4.8611837703692966e-06 0 0.024919329767625318 1.702032769885709e-05 0 0.024920981111276837 2.2794059022161398e-05 0 0.024938986275953218 -6.9426500111115717e-06 0 0.024925683675963223 4.8611837703692966e-06 0 0.024920981111276837 2.2794059022161398e-05 0 0.024919329767625318 1.702032769885709e-05 0 0.024902402732337535 4.0529943158457608e-05 0 0.024920981111276837 2.2794059022161398e-05 0 0.024938986275953218 -6.9426500111115717e-06 0 0.024958885872377504 -7.8748254475000197e-06 0 0.024938986275953218 -6.9426500111115717e-06 0 0.024958885872377504 -7.8748254475000197e-06 0 0.024961886471855852 -4.1973774029558912e-05 0 0.024958885872377504 -7.8748254475000197e-06 0 0.024949165471532257 -1.5501939389843934e-05 0 0.024904881155042854 3.2199265698638826e-05 0 0.024920981111276837 2.2794059022161398e-05 0 0.024958885872377504 -7.8748254475000197e-06 0 0.024904881155042854 3.2199265698638826e-05 0 0.024920981111276837 2.2794059022161398e-05 0 0.024904881155042854 3.2199265698638826e-05 0 0.024902402732337535 4.0529943158457608e-05 0 0.024949165471532257 -1.5501939389843934e-05 0 0.024999999324505799 1.0018603432513478e-08 0 0.024999752238872373 -1.4780102452925363e-07 0 0.024949165471532257 -1.5501939389843934e-05 0 0.024999999324505799 1.0018603432513478e-08 0 0.024986563083755114 -1.8625422078793857e-05 0 0.024958885872377504 -7.8748254475000197e-06 0 0.024949165471532257 -1.5501939389843934e-05 0 0.024986563083755114 -1.8625422078793857e-05 0 0.024958885872377504 -7.8748254475000197e-06 0 0.024986563083755114 -1.8625422078793857e-05 0 0.024982357001185996 -4.3235192048372446e-05 0 0.024986563083755114 -1.8625422078793857e-05 0 0.024999978642851115 -2.7776481321577476e-08 0 0.024982357001185996 -4.3235192048372446e-05 0 0.024999999324505799 1.0018603432513478e-08 0 0.024986563083755114 -1.8625422078793857e-05 0 0.024999978642851115 -2.7776481321577476e-08 0 0.024999978642851115 -2.7776481321577476e-08 0 0.024982357001185996 -4.3235192048372446e-05 0 0.024979700023732981 -6.0102567972226754e-05 0 0.024982357001185996 -4.3235192048372446e-05 0 0.024961886471855852 -4.1973774029558912e-05 0 0.024952385005624245 -0.00012414216369343575 0 0.024958885872377504 -7.8748254475000197e-06 0 0.024982357001185996 -4.3235192048