<?xml version="1.0"?>
<VTKFile type="UnstructuredGrid" version="0.1" byte_order="LittleEndian">
<UnstructuredGrid>
<Piece NumberOfPoints="31898" NumberOfCells="11152">
<Points>
<DataArray type="Float64" NumberOfComponents="3" format="ascii">
-0.5 -0.5 0 -0.47620991077874902 -0.44978878706170539 0 -0.49999999999999473 -0.42132396840504388 0 -0.5 -0.5 0 -0.47160970827802529 -0.4793630013852106 0 -0.47620991077874902 -0.44978878706170539 0 -0.5 -0.5 0 -0.47160970827802529 -0.4793630013852106 0 -0.44860394795025399 -0.5 0 -0.47160970827802529 -0.4793630013852106 0 -0.44860394795025399 -0.5 0 -0.4490820238307246 -0.45820516232899983 0 -0.44860394795025399 -0.5 0 -0.4490820238307246 -0.45820516232899983 0 -0.42881687682924802 -0.47781464288736519 0 -0.4490820238307246 -0.45820516232899983 0 -0.45555437223955858 -0.42914059360647611 0 -0.4490820238307246 -0.45820516232899983 0 -0.45555437223955858 -0.42914059360647611 0 -0.43867285131603428 -0.4271457417558665 0 -0.4490820238307246 -0.45820516232899983 0 -0.43867285131603428 -0.4271457417558665 0 -0.4263356171060747 -0.44269880333887462 0 -0.47160970827802529 -0.4793630013852106 0 -0.4490820238307246 -0.45820516232899983 0 -0.47620991077874902 -0.44978878706170539 0 -0.4490820238307246 -0.45820516232899983 0 -0.47620991077874902 -0.44978878706170539 0 -0.45555437223955858 -0.42914059360647611 0 -0.47620991077874902 -0.44978878706170539 0 -0.48101336032419229 -0.41069999664450008 0 -0.45555437223955858 -0.42914059360647611 0 -0.47620991077874902 -0.44978878706170539 0 -0.49999999999999473 -0.42132396840504388 0 -0.48101336032419229 -0.41069999664450008 0 -0.49999999999999473 -0.42132396840504388 0 -0.48101336032419229 -0.41069999664450008 0 -0.5 -0.393886241813306 0 -0.49999999999999473 -0.42132396840504388 0 -0.48101336032419229 -0.41069999664450008 0 -0.5 -0.393886241813306 0 -0.47854472220918332 -0.38978458738689759 0 -0.48422759779560409 -0.37130120630367158 0 -0.5 -0.393886241813306 0 -0.5 -0.36644851522156802 0 -0.48422759779560409 -0.37130120630367158 0 -0.48101336032419229 -0.41069999664450008 0 -0.5 -0.393886241813306 0 -0.47854472220918332 -0.38978458738689759 0 -0.48101336032419229 -0.41069999664450008 0 -0.47854472220918332 -0.38978458738689759 0 -0.46202672064839212 -0.40007602488395211 0 -0.48101336032419229 -0.41069999664450008 0 -0.46202672064839212 -0.40007602488395211 0 -0.47854472220918332 -0.38978458738689759 0 -0.46725442735267431 -0.37660061361585562 0 -0.46202672064839212 -0.40007602488395211 0 -0.47854472220918332 -0.38978458738689759 0 -0.46725442735267431 -0.37660061361585562 0 -0.48422759779560409 -0.37130120630367158 0 -0.46725442735267431 -0.37660061361585562 0 -0.46202672064839212 -0.40007602488395211 0 -0.46725442735267431 -0.37660061361585562 0 -0.45645674801697989 -0.38644133236760531 0 -0.46202672064839212 -0.40007602488395211 0 -0.46725442735267431 -0.37660061361585562 0 -0.45645674801697989 -0.38644133236760531 0 -0.4540003998136638 -0.37455519391687309 0 -0.45645674801697989 -0.38644133236760531 0 -0.46202672064839212 -0.40007602488395211 0 -0.44257020456291563 -0.38918913383950271 0 -0.46202672064839212 -0.40007602488395211 0 -0.44257020456291563 -0.38918913383950271 0 -0.44727608925983742 -0.41095911152778891 0 -0.46202672064839212 -0.40007602488395211 0 -0.44257020456291563 -0.38918913383950271 0 -0.44257020456291563 -0.38918913383950271 0 -0.44727608925983742 -0.41095911152778891 0 -0.43479358559901082 -0.4041454901736512 0 -0.44257020456291563 -0.38918913383950271 0 -0.4540003998136638 -0.37455519391687309 0 -0.44172858264042247 -0.37082207246888088 0 -0.45645674801697989 -0.38644133236760531 0 -0.44257020456291563 -0.38918913383950271 0 -0.4540003998136638 -0.37455519391687309 0 -0.46202672064839212 -0.40007602488395211 0 -0.45555437223955858 -0.42914059360647611 0 -0.44727608925983742 -0.41095911152778891 0 -0.46202672064839212 -0.40007602488395211 0 -0.45555437223955858 -0.42914059360647611 0 -0.48101336032419229 -0.41069999664450008 0 -0.46202672064839212 -0.40007602488395211 0 -0.45555437223955858 -0.42914059360647611 0 -0.44727608925983742 -0.41095911152778891 0 -0.43867285131603428 -0.4271457417558665 0 -0.43676601469929588 -0.41441201227470881 0 -0.44727608925983742 -0.41095911152778891 0 -0.43676601469929588 -0.41441201227470881 0 -0.43479358559901082 -0.4041454901736512 0 -0.45555437223955858 -0.42914059360647611 0 -0.44727608925983742 -0.41095911152778891 0 -0.43867285131603428 -0.4271457417558665 0 -0.43867285131603428 -0.4271457417558665 0 -0.42681803064840879 -0.42717069814352421 0 -0.4263356171060747 -0.44269880333887462 0 -0.42681803064840879 -0.42717069814352421 0 -0.41531815884496182 -0.42985383783075998 0 -0.4263356171060747 -0.44269880333887462 0 -0.42681803064840879 -0.42717069814352421 0 -0.42624289495594048 -0.42089725947505818 0 -0.42083332353326591 -0.42146747131641099 0 -0.42681803064840879 -0.42717069814352421 0 -0.43096994786351572 -0.41951492446283251 0 -0.42624289495594048 -0.42089725947505818 0 -0.43867285131603428 -0.4271457417558665 0 -0.42681803064840879 -0.42717069814352421 0 -0.43096994786351572 -0.41951492446283251 0 -0.43867285131603428 -0.4271457417558665 0 -0.43676601469929588 -0.41441201227470881 0 -0.43096994786351572 -0.41951492446283251 0 -0.43676601469929588 -0.41441201227470881 0 -0.43096994786351572 -0.41951492446283251 0 -0.42907264086257813 -0.41311715872526122 0 -0.43676601469929588 -0.41441201227470881 0 -0.42907264086257813 -0.41311715872526122 0 -0.43479358559901082 -0.4041454901736512 0 -0.42907264086257813 -0.41311715872526122 0 -0.43479358559901082 -0.4041454901736512 0 -0.42460885511582858 -0.40417321677700252 0 -0.42907264086257813 -0.41311715872526122 0 -0.41997834854398469 -0.41180534796019508 0 -0.42907264086257813 -0.41311715872526122 0 -0.42635027777857132 -0.41543594397746519 0 -0.41997834854398469 -0.41180534796019508 0 -0.42907264086257813 -0.41311715872526122 0 -0.41997834854398469 -0.41180534796019508 0 -0.42460885511582858 -0.40417321677700252 0 -0.42635027777857132 -0.41543594397746519 0 -0.41997834854398469 -0.41180534796019508 0 -0.42635027777857132 -0.41543594397746519 0 -0.42083332353326591 -0.42146747131641099 0 -0.41997834854398469 -0.41180534796019508 0 -0.43096994786351572 -0.41951492446283251 0 -0.42624289495594048 -0.42089725947505818 0 -0.42635027777857132 -0.41543594397746519 0 -0.43096994786351572 -0.41951492446283251 0 -0.42907264086257813 -0.41311715872526122 0 -0.42635027777857132 -0.41543594397746519 0 -0.42624289495594048 -0.42089725947505818 0 -0.42635027777857132 -0.41543594397746519 0 -0.42083332353326591 -0.42146747131641099 0 -0.42083332353326591 -0.42146747131641099 0 -0.41997834854398469 -0.41180534796019508 0 -0.40992282953163789 -0.42011435591993562 0 -0.41997834854398469 -0.41180534796019508 0 -0.39756877647335259 -0.40857286797681719 0 -0.41997834854398469 -0.41180534796019508 0 -0.40992282953163789 -0.42011435591993562 0 -0.39756877647335259 -0.40857286797681719 0 -0.40992282953163789 -0.42011435591993562 0 -0.41531815884496182 -0.42985383783075998 0 -0.39591554026262499 -0.42887225451549271 0 -0.41531815884496182 -0.42985383783075998 0 -0.39591554026262499 -0.42887225451549271 0 -0.41160927495564159 -0.44339431233754628 0 -0.42083332353326591 -0.42146747131641099 0 -0.40992282953163789 -0.42011435591993562 0 -0.41531815884496182 -0.42985383783075998 0 -0.42681803064840879 -0.42717069814352421 0 -0.42083332353326591 -0.42146747131641099 0 -0.41531815884496182 -0.42985383783075998 0 -0.44257020456291563 -0.38918913383950271 0 -0.42311368847744002 -0.37830224279505142 0 -0.42594061475171041 -0.39368797999533162 0 -0.44257020456291563 -0.38918913383950271 0 -0.42311368847744002 -0.37830224279505142 0 -0.44172858264042247 -0.37082207246888088 0 -0.44257020456291563 -0.38918913383950271 0 -0.42311368847744002 -0.37830224279505142 0 -0.42311368847744002 -0.37830224279505142 0 -0.42594061475171041 -0.39368797999533162 0 -0.416587075656149 -0.38785930376960043 0 -0.44257020456291563 -0.38918913383950271 0 -0.42594061475171041 -0.39368797999533162 0 -0.43479358559901082 -0.4041454901736512 0 -0.42594061475171041 -0.39368797999533162 0 -0.43479358559901082 -0.4041454901736512 0 -0.42460885511582858 -0.40417321677700252 0 -0.41997834854398469 -0.41180534796019508 0 -0.41325908582185972 -0.39811010703057192 0 -0.39770572831670092 -0.39911486077581648 0 -0.41997834854398469 -0.41180534796019508 0 -0.39770572831670092 -0.39911486077581648 0 -0.42594061475171041 -0.39368797999533162 0 -0.42460885511582858 -0.40417321677700252 0 -0.41325908582185972 -0.39811010703057192 0 -0.41997834854398469 -0.41180534796019508 0 -0.42460885511582858 -0.40417321677700252 0 -0.41325908582185972 -0.39811010703057192 0 -0.42594061475171041 -0.39368797999533162 0 -0.41325908582185972 -0.39811010703057192 0 -0.416587075656149 -0.38785930376960043 0 -0.41325908582185972 -0.39811010703057192 0 -0.416587075656149 -0.38785930376960043 0 -0.40403491357358612 -0.38133688525744702 0 -0.42311368847744002 -0.37830224279505142 0 -0.40403491357358612 -0.38133688525744702 0 -0.40365717239196519 -0.36741535175059892 0 -0.42311368847744002 -0.37830224279505142 0 -0.416587075656149 -0.38785930376960043 0 -0.40403491357358612 -0.38133688525744702 0 -0.40403491357358612 -0.38133688525744702 0 -0.39190790742475001 -0.38540387676521748 0 -0.39770572831670092 -0.39911486077581648 0 -0.40403491357358612 -0.38133688525744702 0 -0.39190790742475001 -0.38540387676521748 0 -0.3904578797192948 -0.37473938743617019 0 -0.41325908582185972 -0.39811010703057192 0 -0.40403491357358612 -0.38133688525744702 0 -0.39770572831670092 -0.39911486077581648 0 -0.39770572831670092 -0.39911486077581648 0 -0.37543310808941849 -0.38642437359143528 0 -0.39770572831670092 -0.39911486077581648 0 -0.37515920440272033 -0.40534038799344108 0 -0.37543310808941849 -0.38642437359143528 0 -0.39770572831670092 -0.39911486077581648 0 -0.37515920440272033 -0.40534038799344108 0 -0.39756877647335259 -0.40857286797681719
[...]
<PointData Scalars="" Vectors="displacement," Tensors="">
<DataArray type="Float64" Name="displacement" NumberOfComponents="3" format="ascii">
-0.074994589220743452 -0.074995776721812901 0 -0.069920931989522608 -0.07366284304740317 0 -0.063221304018728247 -0.074990006380803886 0 -0.074994589220743452 -0.074995776721812901 0 -0.073803619482231325 -0.072265088630761046 0 -0.069920931989522608 -0.07366284304740317 0 -0.074994589220743452 -0.074995776721812901 0 -0.073803619482231325 -0.072265088630761046 0 -0.074995798332239252 -0.067297069652366204 0 -0.073803619482231325 -0.072265088630761046 0 -0.074995798332239252 -0.067297069652366204 0 -0.074258252918628281 -0.071221140974006072 0 -0.074995798332239252 -0.067297069652366204 0 -0.074258252918628281 -0.071221140974006072 0 -0.075238680871782024 -0.065914315762576059 0 -0.072755324015471107 -0.07322906633047753 0 -0.072468764265760224 -0.073819543744176555 0 -0.074258252918628281 -0.071221140974006072 0 -0.080685872158521771 -0.071872542505943729 0 -0.081188343473557925 -0.068668257282984188 0 -0.074258252918628281 -0.071221140974006072 0 -0.081188343473557925 -0.068668257282984188 0 -0.078494062994654598 -0.066202479321756338 0 -0.073803619482231325 -0.072265088630761046 0 -0.074258252918628281 -0.071221140974006072 0 -0.069920931989522608 -0.07366284304740317 0 -0.074258252918628281 -0.071221140974006072 0 -0.069920931989522608 -0.07366284304740317 0 -0.068238607292636283 -0.074955675448809281 0 -0.069920931989522608 -0.07366284304740317 0 -0.065072430679719087 -0.074198802382464638 0 -0.068238607292636283 -0.074955675448809281 0 -0.069920931989522608 -0.07366284304740317 0 -0.063221304018728247 -0.074990006380803886 0 -0.065072430679719087 -0.074198802382464638 0 -0.06319857529914244 -0.074999991190094414 0 -0.061603009292562461 -0.077828979939121148 0 -0.059082946654306863 -0.074999987912885244 0 -0.063200800256436332 -0.07500096067845019 0 -0.064220723798300974 -0.075368515892457091 0 -0.059082946654306863 -0.074999987912885244 0 -0.05847346009478982 -0.078196184816575212 0 -0.055700028576296835 -0.0773503558157288 0 -0.059082946654306863 -0.074999987912885244 0 -0.054967283272995139 -0.074999985774328301 0 -0.055700028576296835 -0.0773503558157288 0 -0.061603009292562461 -0.077828979939121148 0 -0.059082946654306863 -0.074999987912885244 0 -0.05847346009478982 -0.078196184816575212 0 -0.061603009292562461 -0.077828979939121148 0 -0.05847346009478982 -0.078196184816575212 0 -0.060020031623982666 -0.080650671659235521 0 -0.064220723798300974 -0.075368515892457091 0 -0.06642358763694145 -0.074065135103397989 0 -0.05847346009478982 -0.078196184816575212 0 -0.05649964154999941 -0.079880606390216088 0 -0.060020031623982666 -0.080650671659235521 0 -0.05847346009478982 -0.078196184816575212 0 -0.05649964154999941 -0.079880606390216088 0 -0.055700028576296835 -0.0773503558157288 0 -0.056947093625141311 -0.075963572425558054 0 -0.06642358763694145 -0.074065135103397989 0 -0.05222161197040584 -0.079264300239676219 0 -0.052076573189316903 -0.07921556988882382 0 -0.051975462634054982 -0.079263482580864006 0 -0.05222161197040584 -0.079264300239676219 0 -0.052076573189316903 -0.07921556988882382 0 -0.052101371711769741 -0.079242288610679168 0 -0.052076573189316903 -0.07921556988882382 0 -0.051975462634054982 -0.079263482580864006 0 -0.052002137877749141 -0.079091039106372343 0 -0.085190632393794236 -0.072235752113092341 0 -0.08647012243241739 -0.069236431206145518 0 -0.083624262386070805 -0.070094111654178573 0 -0.06642358763694145 -0.074065135103397989 0 -0.067050334915154039 -0.072806770081339706 0 -0.08647012243241739 -0.069236431206145518 0 -0.083624262386070805 -0.070094111654178573 0 -0.084541325076341725 -0.068172131754682577 0 -0.052002137877749141 -0.079091039106372343 0 -0.052101371711769741 -0.079242288610679168 0 -0.052106066949347184 -0.079084812535772417 0 -0.052076573189316903 -0.07921556988882382 0 -0.052002137877749141 -0.079091039106372343 0 -0.052101371711769741 -0.079242288610679168 0 -0.085190632393794236 -0.072235752113092341 0 -0.080685872158521771 -0.071872542505943729 0 -0.083624262386070805 -0.070094111654178573 0 -0.06642358763694145 -0.074065135103397989 0 -0.072468764265760224 -0.073819543744176555 0 -0.065072430679719087 -0.074198802382464638 0 -0.064745878841193441 -0.075319910256546871 0 -0.068238607292636283 -0.074955675448809281 0 -0.083624262386070805 -0.070094111654178573 0 -0.081188343473557925 -0.068668257282984188 0 -0.083154846146444861 -0.068417570058067159 0 -0.083624262386070805 -0.070094111654178573 0 -0.083154846146444861 -0.068417570058067159 0 -0.084541325076341725 -0.068172131754682577 0 -0.080685872158521771 -0.071872542505943729 0 -0.083624262386070805 -0.070094111654178573 0 -0.081188343473557925 -0.068668257282984188 0 -0.081188343473557925 -0.068668257282984188 0 -0.081118364314090419 -0.066561868427383764 0 -0.078494062994654598 -0.066202479321756338 0 -0.081118364314090419 -0.066561868427383764 0 -0.080658864513528994 -0.06458581036804574 0 -0.078494062994654598 -0.066202479321756338 0 -0.081118364314090419 -0.066561868427383764 0 -0.082146373755622573 -0.066555265367186173 0 -0.082041279609076825 -0.065585367084796176 0 -0.081118364314090419 -0.066561868427383764 0 -0.082383056235737495 -0.067423570142089592 0 -0.082146373755622573 -0.066555265367186173 0 -0.081188343473557925 -0.068668257282984188 0 -0.081118364314090419 -0.066561868427383764 0 -0.082383056235737495 -0.067423570142089592 0 -0.081188343473557925 -0.068668257282984188 0 -0.083154846146444861 -0.068417570058067159 0 -0.082383056235737495 -0.067423570142089592 0 -0.083154846146444861 -0.068417570058067159 0 -0.082383056235737495 -0.067423570142089592 0 -0.08344725228870345 -0.067253620811794299 0 -0.083154846146444861 -0.068417570058067159 0 -0.08344725228870345 -0.067253620811794299 0 -0.084541325076341725 -0.068172131754682577 0 -0.08344725228870345 -0.067253620811794299 0 -0.084541325076341725 -0.068172131754682577 0 -0.08452043900412394 -0.066888539935194669 0 -0.080700797616654329 -0.062839049667021418 0 -0.080657512079158666 -0.062329472837972751 0 -0.08344725228870345 -0.067253620811794299 0 -0.083044744724273298 -0.066652808284462794 0 -0.083815953196845802 -0.065326757374787867 0 -0.08344725228870345 -0.067253620811794299 0 -0.083701397373372344 -0.066365701004927946 0 -0.08452043900412394 -0.066888539935194669 0 -0.080648905937668561 -0.062524919667005907 0 -0.080657512079158666 -0.062329472837972751 0 -0.083044744724273298 -0.066652808284462794 0 -0.082041279609076825 -0.065585367084796176 0 -0.083685282770111544 -0.065441561144185076 0 -0.082383056235737495 -0.067423570142089592 0 -0.082146373755622573 -0.066555265367186173 0 -0.083044744724273298 -0.066652808284462794 0 -0.082383056235737495 -0.067423570142089592 0 -0.08344725228870345 -0.067253620811794299 0 -0.083044744724273298 -0.066652808284462794 0 -0.082146373755622573 -0.066555265367186173 0 -0.083044744724273298 -0.066652808284462794 0 -0.082041279609076825 -0.065585367084796176 0 -0.082041279609076825 -0.065585367084796176 0 -0.083685282770111544 -0.065441561144185076 0 -0.082269407440914821 -0.063729675156144569 0 -0.080657512079158666 -0.062329472837972751 0 -0.081161466008889543 -0.059640001492227576 0 -0.083685282770111544 -0.065441561144185076 0 -0.082269407440914821 -0.063729675156144569 0 -0.084150914421611447 -0.061693729401378745 0 -0.082269407440914821 -0.063729675156144569 0 -0.080658864513528994 -0.06458581036804574 0 -0.080850425703029333 -0.061434210160741638 0 -0.080658864513528994 -0.06458581036804574 0 -0.080850425703029333 -0.061434210160741638 0 -0.078528942722679976 -0.063945454070846494 0 -0.082041279609076825 -0.065585367084796176 0 -0.082269407440914821 -0.063729675156144569 0 -0.080658864513528994 -0.06458581036804574 0 -0.081118364314090419 -0.066561868427383764 0 -0.082041279609076825 -0.065585367084796176 0 -0.080658864513528994 -0.06458581036804574 0 -0.08647012243241739 -0.069236431206145518 0 -0.087316783803960893 -0.066767845031513784 0 -0.085726614373728263 -0.067096164568422476 0 -0.052002137877749141 -0.079091039106372343 0 -0.05202382711186207 -0.078804731139360623 0 -0.052106066949347184 -0.079084812535772417 0 -0.067050334915154039 -0.072806770081339706 0 -0.066995515369737094 -0.070537843952139134 0 -0.087316783803960893 -0.066767845031513784 0 -0.085726614373728263 -0.067096164568422476 0 -0.086267731450315258 -0.066067689333304092 0 -0.08647012243241739 -0.069236431206145518 0 -0.085726614373728263 -0.067096164568422476 0 -0.084541325076341725 -0.068172131754682577 0 -0.085726614373728263 -0.067096164568422476 0 -0.084541325076341725 -0.068172131754682577 0 -0.08452043900412394 -0.066888539935194669 0 -0.083701397373372344 -0.066365701004927946 0 -0.085199354753883738 -0.065698741508612019 0 -0.085146159090942974 -0.064161032958920991 0 -0.080657512079158666 -0.062329472837972751 0 -0.080172675734365789 -0.059748257894198555 0 -0.085726614373728263 -0.067096164568422476 0 -0.08452043900412394 -0.066888539935194669 0 -0.085199354753883738 -0.065698741508612019 0 -0.083701397373372344 -0.066365701004927946 0 -0.08452043900412394 -0.066888539935194669 0 -0.085199354753883738 -0.065698741508612019 0 -0.085726614373728263 -0.067096164568422476 0 -0.085199354753883738 -0.065698741508612019 0 -0.086267731450315258 -0.066067689333304092 0 -0.085199354753883738 -0.065698741508612019 0 -0.086267731450315258 -0.066067689333304092 0 -0.086817701791551946 -0.064741466353188087 0 -0.087316783803960893 -0.066767845031513784 0 -0.086817701791551946 -0.064741466353188087 0 -0.088262081818235819 -0.064707794044473813 0 -0.087316783803960893 -0.066767845031513784 0 -0.086267731450315258 -0.066067689333304092 0 -0.086817701791551946 -0.064741466353188087 0 -0.086817701791551946 -0.064741466353188087 0 -0.086381554802203331 -0.063698458745027747 0 -0.085146159090942974 -0.064161032958920991 0 -0.086817701791551946 -0.064741466353188087 0 -0.086381554802203331 -0.063698458745027747 0 -0.087241300770060329 -0.0635930072992969 0 -0.085199354753883738 -0.065698741508612019 0 -0.086817701791551946 -0.064741466353188087 0 -0.085146159090942974 -0.064161032958920991 0 -0.080172675734365789 -0.059748257894198555 0 -0.078350922631522324 -0.055722501153302677 0 -0.080762661232879562 -0.058751234081550884 0 -0.080141234353394097 -0.056500684997343273 0 -0.082017413600991393 -0.056526272402066063 0 -0.080762661232879562 -0.058751234081550884 0 -0.080141234353394097 -0.056500684997343273 0 -0.079820898535517645 -0.058738949228285528 0 -0.081424674466178376 -0.055833612637362341 0 -0.078350922631522324 -0.055722501153302677 0 -0.086294287644794507 -0.062346830877038351 0 -0.087241300770060329 -0.0635930072992969 0 -0.087642000642691079 -0.062424150820574183 0 -0.086381554802203331 -0.063698458745027747 0 -0.086294287644794507 -0.062346830877038351 0 -0.087241300770060329 -0.0635930072992969 0 -0.078350922631522324 -0.055722501153302677 0 -0.074158606481903797 -0.057120412314639706 0 -0.086381554802203331 -0.063698458745027747 0 -0.085146159090942974 -0.064161032958920991 0 -0.086294287644794507 -0.062346830877038351 0 -0.07950396347524552 -0.060986507278039392 0 -0.080762661232879562 -0.058751234081550884 0 -0.079820898535517645 -0.058738949228285528 0 -0.082269407440914821 -0.063729675156144569 0 -0.080850425703029333 -0.061434210160741638 0 -0.084150914421611447 -0.061693729401378745 0 -0.084657515103865391 -0.058071747018217462 0 -0.080850425703029333 -0.061434210160741638 0 -0.084150914421611447 -0.061693729401378745 0 -0.081424674466178376 -0.055833612637362341 0 -0.081161466008889543 -0.059640001492227576 0 -0.084657515103865391 -0.058071747018217462 0 -0.080850425703029333 -0.061434210160741638 0 -0.079797999662670413 -0.058023962721433731 0 -0.080850425703029333 -0.061434210160741638 0 -0.078024738949549186 -0.060961569093259796 0 -0.079797999662670413 -0.058023962721433731 0 -0.078024738949549186 -0.060961569093259796 0 -0.074991272556188163 -0.057962397888397563 0 -0.079797999662670413 -0.058023962721433731 0 -0.080850425703029333 -0.061434210160741638 0 -0.078024738949549186 -0.060961569093259796 0 -0.078528942722679976 -0.063945454070846494 0 -0.078024738949549186 -0.060961569093259796 0 -0.07627200207354598 -0.062711348765736641 0 -0.078528942722679976 -0.063945454070846494 0 -0.077218408734541208 -0.062847234998473681 0 -0.076283553236873275 -0.060373529288112467 0 -0.076237448184167098 -0.063490896585799331 0 -0.081218228040974297 -0.060453946195545234 0 -0.080639491201860661 -0.058308508906690176 0 -0.078142281691555099 -0.058800848642560188 0 -0.078607039645573917 -0.059655480359893084 0 -0.076901367679904423 -0.058638469131874121 0 -0.078607039645573917 -0.059655480359893084 0 -0.078608851307786068 -0.059685891325019627 0 -0.078607039645573917 -0.059655480359893084 0 -0.078615822809371252 -0.058433858412150007 0 -0.078024738949549186 -0.060961569093259796 0 -0.07627200207354598 -0.062711348765736641 0 -0.075632224139004181 -0.060335959301692686 0 -0.078024738949549186 -0.060961569093259796 0 -0.075632224139004181 -0.060335959301692686 0 -0.074991272556188163 -0.057962397888397563 0 -0.078615822809371252 -0.058433858412150007 0 -0.078590203780262893 -0.056567052813049537 0 -0.080639491201860661 -0.058308508906690176 0 -0.079185331687707902 -0.057530882277334633 0 -0.080060154753337998 -0.056147003508936422 0 -0.079185331687707902 -0.057530882277334633 0 -0.078142281691555099 -0.058800848642560188 0 -0.078353895282143551 -0.056112637750634832 0 -0.078142281691555099 -0.058800848642560188 0 -0.076520868594466732 -0.055858419689355301 0 -0.078353895282143551 -0.056112637750634832 0 -0.079185331687707902 -0.057530882277334633 0 -0.078353895282143551 -0.056112637750634832 0 -0.080060154753337998 -0.056147003508936422 0 -0.080639491201860661 -0.058308508906690176 0 -0.079185331687707902 -0.057530882277334633 0 -0.078142281691555099 -0.058800848642560188 0 -0.07500141728602501 -0.057143922731698639 0 -0.076901367679904423 -0.058638469131874121 0 -0.07500000698148182 -0.057141983242074326 0 -0.078142281691555099 -0.058800848642560188 0 -0.076520868594466732 -0.055858419689355301 0 -0.074999750700425624 -0.05714463618394118 0 -0.076283553236873275 -0.060373529288112467 0 -0.074998139602209246 -0.061498034605255748 0 -0.076283553236873275 -0.060373529288112467 0 -0.076237448184167098 -0.063490896585799331 0 -0.074998139602209246 -0.061498034605255748 0 -0.076237448184167098 -0.063490896585799331 0 -0.074998139602209246 -0.061498034605255748 0 -0.075238680871782024 -0.065914315762576059 0 -0.074995798332239252 -0.067297069652366204 0 -0.074998139602209246 -0.061498034605255748 0 -0.075238680871782024 -0.065914315762576059 0 -0.076237448184167098 -0.063490896585799331 0 -0.075238680871782024 -0.065914315762576059 0 -0.076097708895652177 -0.066088210963989105 0 -0.074258252918628281 -0.071221140974006072 0 -0.075238680871782024 -0.065914315762576059 0 -0.076097708895652177 -0.066088210963989105 0 -0.074258252918628281 -0.071221140974006072 0 -0.076097708895652177 -0.066088210963989105 0 -0.078494062994654598 -0.066202479321756338 0 -0.076097708895652177 -0.066088210963989105 0 -0.078494062994654598 -0.066202479321756338 0 -0.077229002811016176 -0.0645203482771846 0 -0.078494062994654598 -0.066202479321756338 0 -0.078528942722679976 -0.063945454070846494 0 -0.077229002811016176 -0.0645203482771846 0 -0.080658864513528994 -0.06458581036804574 0 -0.078494062994654598 -0.066202479321756338 0 -0.078528942722679976 -0.063945454070846494 0 -0.077138201853295202 -0.062862162769865837 0 -0.078528942722679976 -0.063945454070846494 0 -0.077200838475601982 -0.063157899214943053 0 -0.078528942722679976 -0.063945454070846494 0 -0.077200838475601982 -0.063157899214943053 0 -0.077229002811016176 -0.0645203482771846 0 -0.078607039645573917 -0.059655480359893084 0 -0.078760630113472757 -0.060151323702497775 0 -0.076237448184167098 -0.063490896585799331 0 -0.077200838475601982 -0.063157899214943053 0 -0.077229002811016176 -0.0645203482771846 0 -0.077218408734541208 -0.062847234998473681 0 -0.076237448184167098 -0.063490896585799331 0 -0.077200838475601982 -0.063157899214943053 0 -0.076237448184167098 -0.063490896585799331 0 -0.076097708895652177 -0.066088210963989105 0 -0.077229002811016176 -0.0645203482771846 0 -0.032019965713361527 -0.078655015726728797 0 -0.028597313282188407 -0.074513483163528807 0 -0.037736424494324017 -0.080979743465153783 0 -0.03753294466135005 -0.085555525958901049 0 -0.035105336489201139 -0.082060981825070045 0 -0.041212661418585192 -0.082029641650033736 0 -0.038377025652414194 -0.081089674311452337 0 -0.038134561442541716 -0.084286602500963315 0 -0.041212661418585192 -0.082029641650033736 0 -0.041057421130434382 -0.084810157758623134 0 -0.038134561442541716 -0.084286602500963315 0 -0.041212661418585192 -0.082029641650033736 0 -0.043796041423964177 -0.083231576733092658 0 -0.041057421130434382 -0.084810157758623134 0 -0.041212661418585192 -0.082029641650033736 0 -0.040134814686200518 -0.079564741251088117 0 -0.042380064890166005 -0.079285256886477112 0 -0.041212661418585192 -0.082029641650033736 0 -0.040134814686200518 -0.079564741251088117 0 -0.038377025652414194 -0.081089674311452337 0 -0.032019965713361527 -0.078655015726728797 0 -0.033136759020115675 -0.078483631232498491 0 -0.040134814686200518 -0.079564741251088117 0 -0.038377025652414194 -0.081089674311452337 0 -0.038447929430261332 -0.077742149482320014 0 -0.037736424494324017 -0.080979743465153783 0 -0.038447929430261332 -0.077742149482320014 0 -0.034599902025301631 -0.078534715525537035 0 -0.038447929430261332 -0.077742149482320014 0 -0.038504285230392649 -0.074999329479650975 0 -0.041035010153929116 -0.077189067002189929 0 -0.038447929430261332 -0.077742149482320014 0 -0.038504285230392649 -0.074999329479650975 0 -0.03598314340042779 -0.076448012650852729 0 -0.038504285230392649 -0.074999329479650975 0 -0.041035010153929116 -0.077189067002189929 0 -0.042620187259008457 -0.074999907108164662 0 -0.040134814686200518 -0.079564741251088117 0 -0.038447929430261332 -0.077742149482320014 0 -0.041035010153929116 -0.077189067002189929 0 -0.040134814686200518 -0.079564741251088117 0 -0.041035010153929116 -0.077189067002189929 0 -0.042380064890166005 -0.079285256886477112 0 -0.042380064890166005 -0.079285256886477112 0 -0.043729279628953344 -0.076962617079376239 0 -0.044682196773260456 -0.078934479444474154 0 -0.041035010153929116 -0.077189067002189929 0 -0.042380064890166005 -0.079285256886477112 0 -0.043729279628953344 -0.076962617079376239 0 -0.042620187259008457 -0.074999907108164662 0 -0.043729279628953344 -0.076962617079376239 0 -0.046735795854496734 -0.074999875252258263 0 -0.041035010153929116 -0.077189067002189929 0 -0.042620187259008457 -0.074999907108164662 0 -0.043729279628953344 -0.076962617079376239 0 -0.043729279628953344 -0.076962617079376239 0 -0.046735795854496734 -0.074999875252258263 0 -0.045840811666959178 -0.077407550198624941 0 -0.045840811666959178 -0.077407550198624941 0 -0.044682196773260456 -0.078934479444474154 0 -0.047060019275824948 -0.078843086130700485 0 -0.043729279628953344 -0.076962617079376239 0 -0.045840811666959178 -0.077407550198624941 0 -0.044682196773260456 -0.078934479444474154 0 -0.044682196773260456 -0.078934479444474154 0 -0.045852329625556167 -0.080390209839397042 0 -0.047060019275824948 -0.078843086130700485 0 -0.045852329625556167 -0.080390209839397042 0 -0.045384886259250801 -0.082332312385706027 0 -0.046900904782706219 -0.081582331335948818 0 -0.045852329625556167 -0.080390209839397042 0 -0.043838991953347776 -0.081019917611421965 0 -0.045384886259250801 -0.082332312385706027 0 -0.044682196773260456 -0.078934479444474154 0 -0.045852329625556167 -0.080390209839397042 0 -0.043838991953347776 -0.081019917611421965 0 -0.041212661418585192 -0.082029641650033736 0 -0.042380064890166005 -0.079285256886477112 0 -0.043838991953347776 -0.081019917611421965 0 -0.04238006489016