<?xml version="1.0"?>
<VTKFile type="UnstructuredGrid" version="0.1" byte_order="LittleEndian">
<UnstructuredGrid>
<Piece NumberOfPoints="31898" NumberOfCells="11152">
<Points>
<DataArray type="Float64" NumberOfComponents="3" format="ascii">
-0.5 -0.5 0 -0.47620991077874902 -0.44978878706170539 0 -0.49999999999999473 -0.42132396840504388 0 -0.5 -0.5 0 -0.47160970827802529 -0.4793630013852106 0 -0.47620991077874902 -0.44978878706170539 0 -0.5 -0.5 0 -0.47160970827802529 -0.4793630013852106 0 -0.44860394795025399 -0.5 0 -0.47160970827802529 -0.4793630013852106 0 -0.44860394795025399 -0.5 0 -0.4490820238307246 -0.45820516232899983 0 -0.44860394795025399 -0.5 0 -0.4490820238307246 -0.45820516232899983 0 -0.42881687682924802 -0.47781464288736519 0 -0.4490820238307246 -0.45820516232899983 0 -0.45555437223955858 -0.42914059360647611 0 -0.4490820238307246 -0.45820516232899983 0 -0.45555437223955858 -0.42914059360647611 0 -0.43867285131603428 -0.4271457417558665 0 -0.4490820238307246 -0.45820516232899983 0 -0.43867285131603428 -0.4271457417558665 0 -0.4263356171060747 -0.44269880333887462 0 -0.47160970827802529 -0.4793630013852106 0 -0.4490820238307246 -0.45820516232899983 0 -0.47620991077874902 -0.44978878706170539 0 -0.4490820238307246 -0.45820516232899983 0 -0.47620991077874902 -0.44978878706170539 0 -0.45555437223955858 -0.42914059360647611 0 -0.47620991077874902 -0.44978878706170539 0 -0.48101336032419229 -0.41069999664450008 0 -0.45555437223955858 -0.42914059360647611 0 -0.47620991077874902 -0.44978878706170539 0 -0.49999999999999473 -0.42132396840504388 0 -0.48101336032419229 -0.41069999664450008 0 -0.49999999999999473 -0.42132396840504388 0 -0.48101336032419229 -0.41069999664450008 0 -0.5 -0.393886241813306 0 -0.49999999999999473 -0.42132396840504388 0 -0.48101336032419229 -0.41069999664450008 0 -0.5 -0.393886241813306 0 -0.47854472220918332 -0.38978458738689759 0 -0.48422759779560409 -0.37130120630367158 0 -0.5 -0.393886241813306 0 -0.5 -0.36644851522156802 0 -0.48422759779560409 -0.37130120630367158 0 -0.48101336032419229 -0.41069999664450008 0 -0.5 -0.393886241813306 0 -0.47854472220918332 -0.38978458738689759 0 -0.48101336032419229 -0.41069999664450008 0 -0.47854472220918332 -0.38978458738689759 0 -0.46202672064839212 -0.40007602488395211 0 -0.48101336032419229 -0.41069999664450008 0 -0.46202672064839212 -0.40007602488395211 0 -0.47854472220918332 -0.38978458738689759 0 -0.46725442735267431 -0.37660061361585562 0 -0.46202672064839212 -0.40007602488395211 0 -0.47854472220918332 -0.38978458738689759 0 -0.46725442735267431 -0.37660061361585562 0 -0.48422759779560409 -0.37130120630367158 0 -0.46725442735267431 -0.37660061361585562 0 -0.46202672064839212 -0.40007602488395211 0 -0.46725442735267431 -0.37660061361585562 0 -0.45645674801697989 -0.38644133236760531 0 -0.46202672064839212 -0.40007602488395211 0 -0.46725442735267431 -0.37660061361585562 0 -0.45645674801697989 -0.38644133236760531 0 -0.4540003998136638 -0.37455519391687309 0 -0.45645674801697989 -0.38644133236760531 0 -0.46202672064839212 -0.40007602488395211 0 -0.44257020456291563 -0.38918913383950271 0 -0.46202672064839212 -0.40007602488395211 0 -0.44257020456291563 -0.38918913383950271 0 -0.44727608925983742 -0.41095911152778891 0 -0.46202672064839212 -0.40007602488395211 0 -0.44257020456291563 -0.38918913383950271 0 -0.44257020456291563 -0.38918913383950271 0 -0.44727608925983742 -0.41095911152778891 0 -0.43479358559901082 -0.4041454901736512 0 -0.44257020456291563 -0.38918913383950271 0 -0.4540003998136638 -0.37455519391687309 0 -0.44172858264042247 -0.37082207246888088 0 -0.45645674801697989 -0.38644133236760531 0 -0.44257020456291563 -0.38918913383950271 0 -0.4540003998136638 -0.37455519391687309 0 -0.46202672064839212 -0.40007602488395211 0 -0.45555437223955858 -0.42914059360647611 0 -0.44727608925983742 -0.41095911152778891 0 -0.46202672064839212 -0.40007602488395211 0 -0.45555437223955858 -0.42914059360647611 0 -0.48101336032419229 -0.41069999664450008 0 -0.46202672064839212 -0.40007602488395211 0 -0.45555437223955858 -0.42914059360647611 0 -0.44727608925983742 -0.41095911152778891 0 -0.43867285131603428 -0.4271457417558665 0 -0.43676601469929588 -0.41441201227470881 0 -0.44727608925983742 -0.41095911152778891 0 -0.43676601469929588 -0.41441201227470881 0 -0.43479358559901082 -0.4041454901736512 0 -0.45555437223955858 -0.42914059360647611 0 -0.44727608925983742 -0.41095911152778891 0 -0.43867285131603428 -0.4271457417558665 0 -0.43867285131603428 -0.4271457417558665 0 -0.42681803064840879 -0.42717069814352421 0 -0.4263356171060747 -0.44269880333887462 0 -0.42681803064840879 -0.42717069814352421 0 -0.41531815884496182 -0.42985383783075998 0 -0.4263356171060747 -0.44269880333887462 0 -0.42681803064840879 -0.42717069814352421 0 -0.42624289495594048 -0.42089725947505818 0 -0.42083332353326591 -0.42146747131641099 0 -0.42681803064840879 -0.42717069814352421 0 -0.43096994786351572 -0.41951492446283251 0 -0.42624289495594048 -0.42089725947505818 0 -0.43867285131603428 -0.4271457417558665 0 -0.42681803064840879 -0.42717069814352421 0 -0.43096994786351572 -0.41951492446283251 0 -0.43867285131603428 -0.4271457417558665 0 -0.43676601469929588 -0.41441201227470881 0 -0.43096994786351572 -0.41951492446283251 0 -0.43676601469929588 -0.41441201227470881 0 -0.43096994786351572 -0.41951492446283251 0 -0.42907264086257813 -0.41311715872526122 0 -0.43676601469929588 -0.41441201227470881 0 -0.42907264086257813 -0.41311715872526122 0 -0.43479358559901082 -0.4041454901736512 0 -0.42907264086257813 -0.41311715872526122 0 -0.43479358559901082 -0.4041454901736512 0 -0.42460885511582858 -0.40417321677700252 0 -0.42907264086257813 -0.41311715872526122 0 -0.41997834854398469 -0.41180534796019508 0 -0.42907264086257813 -0.41311715872526122 0 -0.42635027777857132 -0.41543594397746519 0 -0.41997834854398469 -0.41180534796019508 0 -0.42907264086257813 -0.41311715872526122 0 -0.41997834854398469 -0.41180534796019508 0 -0.42460885511582858 -0.40417321677700252 0 -0.42635027777857132 -0.41543594397746519 0 -0.41997834854398469 -0.41180534796019508 0 -0.42635027777857132 -0.41543594397746519 0 -0.42083332353326591 -0.42146747131641099 0 -0.41997834854398469 -0.41180534796019508 0 -0.43096994786351572 -0.41951492446283251 0 -0.42624289495594048 -0.42089725947505818 0 -0.42635027777857132 -0.41543594397746519 0 -0.43096994786351572 -0.41951492446283251 0 -0.42907264086257813 -0.41311715872526122 0 -0.42635027777857132 -0.41543594397746519 0 -0.42624289495594048 -0.42089725947505818 0 -0.42635027777857132 -0.41543594397746519 0 -0.42083332353326591 -0.42146747131641099 0 -0.42083332353326591 -0.42146747131641099 0 -0.41997834854398469 -0.41180534796019508 0 -0.40992282953163789 -0.42011435591993562 0 -0.41997834854398469 -0.41180534796019508 0 -0.39756877647335259 -0.40857286797681719 0 -0.41997834854398469 -0.41180534796019508 0 -0.40992282953163789 -0.42011435591993562 0 -0.39756877647335259 -0.40857286797681719 0 -0.40992282953163789 -0.42011435591993562 0 -0.41531815884496182 -0.42985383783075998 0 -0.39591554026262499 -0.42887225451549271 0 -0.41531815884496182 -0.42985383783075998 0 -0.39591554026262499 -0.42887225451549271 0 -0.41160927495564159 -0.44339431233754628 0 -0.42083332353326591 -0.42146747131641099 0 -0.40992282953163789 -0.42011435591993562 0 -0.41531815884496182 -0.42985383783075998 0 -0.42681803064840879 -0.42717069814352421 0 -0.42083332353326591 -0.42146747131641099 0 -0.41531815884496182 -0.42985383783075998 0 -0.44257020456291563 -0.38918913383950271 0 -0.42311368847744002 -0.37830224279505142 0 -0.42594061475171041 -0.39368797999533162 0 -0.44257020456291563 -0.38918913383950271 0 -0.42311368847744002 -0.37830224279505142 0 -0.44172858264042247 -0.37082207246888088 0 -0.44257020456291563 -0.38918913383950271 0 -0.42311368847744002 -0.37830224279505142 0 -0.42311368847744002 -0.37830224279505142 0 -0.42594061475171041 -0.39368797999533162 0 -0.416587075656149 -0.38785930376960043 0 -0.44257020456291563 -0.38918913383950271 0 -0.42594061475171041 -0.39368797999533162 0 -0.43479358559901082 -0.4041454901736512 0 -0.42594061475171041 -0.39368797999533162 0 -0.43479358559901082 -0.4041454901736512 0 -0.42460885511582858 -0.40417321677700252 0 -0.41997834854398469 -0.41180534796019508 0 -0.41325908582185972 -0.39811010703057192 0 -0.39770572831670092 -0.39911486077581648 0 -0.41997834854398469 -0.41180534796019508 0 -0.39770572831670092 -0.39911486077581648 0 -0.42594061475171041 -0.39368797999533162 0 -0.42460885511582858 -0.40417321677700252 0 -0.41325908582185972 -0.39811010703057192 0 -0.41997834854398469 -0.41180534796019508 0 -0.42460885511582858 -0.40417321677700252 0 -0.41325908582185972 -0.39811010703057192 0 -0.42594061475171041 -0.39368797999533162 0 -0.41325908582185972 -0.39811010703057192 0 -0.416587075656149 -0.38785930376960043 0 -0.41325908582185972 -0.39811010703057192 0 -0.416587075656149 -0.38785930376960043 0 -0.40403491357358612 -0.38133688525744702 0 -0.42311368847744002 -0.37830224279505142 0 -0.40403491357358612 -0.38133688525744702 0 -0.40365717239196519 -0.36741535175059892 0 -0.42311368847744002 -0.37830224279505142 0 -0.416587075656149 -0.38785930376960043 0 -0.40403491357358612 -0.38133688525744702 0 -0.40403491357358612 -0.38133688525744702 0 -0.39190790742475001 -0.38540387676521748 0 -0.39770572831670092 -0.39911486077581648 0 -0.40403491357358612 -0.38133688525744702 0 -0.39190790742475001 -0.38540387676521748 0 -0.3904578797192948 -0.37473938743617019 0 -0.41325908582185972 -0.39811010703057192 0 -0.40403491357358612 -0.38133688525744702 0 -0.39770572831670092 -0.39911486077581648 0 -0.39770572831670092 -0.39911486077581648 0 -0.37543310808941849 -0.38642437359143528 0 -0.39770572831670092 -0.39911486077581648 0 -0.37515920440272033 -0.40534038799344108 0 -0.37543310808941849 -0.38642437359143528 0 -0.39770572831670092 -0.39911486077581648 0 -0.37515920440272033 -0.40534038799344108 0 -0.39756877647335259 -0.40857286797681719
[...]
<PointData Scalars="" Vectors="displacement," Tensors="">
<DataArray type="Float64" Name="displacement" NumberOfComponents="3" format="ascii">
-0.034997136623191642 -2.7385394528657909e-07 0 -0.034121469519797568 -0.00018443487437009499 0 -0.034997662853679057 -7.5086345679050819e-07 0 -0.034997136623191642 -2.7385394528657909e-07 0 -0.033476898428452091 -0.00012528098487346915 0 -0.034121469519797568 -0.00018443487437009499 0 -0.034997136623191642 -2.7385394528657909e-07 0 -0.033476898428452091 -0.00012528098487346915 0 -0.031404217885526074 -2.8662082335055557e-07 0 -0.033476898428452091 -0.00012528098487346915 0 -0.031404217885526074 -2.8662082335055557e-07 0 -0.032868994973313373 5.4783918130274174e-05 0 -0.031404217885526074 -2.8662082335055557e-07 0 -0.032868994973313373 5.4783918130274174e-05 0 -0.031222024692074159 -6.7757384897694495e-05 0 -0.033231801704855124 0.00018156434808229514 0 -0.033430960880732712 0.00017753332740067155 0 -0.032868994973313373 5.4783918130274174e-05 0 -0.032370977264815678 0.00025975301583093107 0 -0.032323261578138821 8.308127203515162e-05 0 -0.032868994973313373 5.4783918130274174e-05 0 -0.032323261578138821 8.308127203515162e-05 0 -0.03232593809249211 1.7284175657692401e-05 0 -0.033476898428452091 -0.00012528098487346915 0 -0.032868994973313373 5.4783918130274174e-05 0 -0.034121469519797568 -0.00018443487437009499 0 -0.032868994973313373 5.4783918130274174e-05 0 -0.034121469519797568 -0.00018443487437009499 0 -0.034444354378684573 0.00025386586794217119 0 -0.034121469519797568 -0.00018443487437009499 0 -0.034880892300927842 -3.5490989841914733e-05 0 -0.034444354378684573 0.00025386586794217119 0 -0.034121469519797568 -0.00018443487437009499 0 -0.034997662853679057 -7.5086345679050819e-07 0 -0.034880892300927842 -3.5490989841914733e-05 0 -0.034999999533877536 4.3642645308603547e-11 0 -0.03499939401450898 -2.7677353372086338e-07 0 -0.034999999325003542 -3.5923442425128225e-10 0 -0.034999042963563397 3.6144103760757376e-07 0 -0.034525226314003961 0.00011002001887029256 0 -0.034999999325003542 -3.5923442425128225e-10 0 -0.034999276381574129 -4.6623297126331167e-07 0 -0.034999743438198658 -6.9602388879824293e-07 0 -0.034999999325003542 -3.5923442425128225e-10 0 -0.034999998636114658 -9.0329269761226212e-10 0 -0.034999743438198658 -6.9602388879824293e-07 0 -0.03499939401450898 -2.7677353372086338e-07 0 -0.034999999325003542 -3.5923442425128225e-10 0 -0.034999276381574129 -4.6623297126331167e-07 0 -0.03499939401450898 -2.7677353372086338e-07 0 -0.034999276381574129 -4.6623297126331167e-07 0 -0.034998443621192803 -4.5253919851064303e-07 0 -0.034525226314003961 0.00011002001887029256 0 -0.033794075045443843 0.00011540269222760947 0 -0.034999276381574129 -4.6623297126331167e-07 0 -0.034999145797698347 -5.3768464771504293e-07 0 -0.034998443621192803 -4.5253919851064303e-07 0 -0.034999276381574129 -4.6623297126331167e-07 0 -0.034999145797698347 -5.3768464771504293e-07 0 -0.034999743438198658 -6.9602388879824293e-07 0 -0.03436480760499868 3.1142055706758509e-05 0 -0.033794075045443843 0.00011540269222760947 0 -0.033951054932929187 8.5640779047093383e-05 0 -0.033780359608215321 0.00027725785129208938 0 -0.033542360090259217 0.00018038269961113306 0 -0.033951054932929187 8.5640779047093383e-05 0 -0.033780359608215321 0.00027725785129208938 0 -0.033988968938136077 0.00032191127596538724 0 -0.033780359608215321 0.00027725785129208938 0 -0.033542360090259217 0.00018038269961113306 0 -0.033733934243706853 0.00051915408588250063 0 -0.032171862627975702 0.00028233535859728483 0 -0.032101808145872442 0.00015895185681294799 0 -0.032245106189575962 0.00018098851464327701 0 -0.033794075045443843 0.00011540269222760947 0 -0.033039409374174655 0.00037334173196970687 0 -0.032101808145872442 0.00015895185681294799 0 -0.032245106189575962 0.00018098851464327701 0 -0.032208395588974328 0.00010572899796162789 0 -0.033733934243706853 0.00051915408588250063 0 -0.033988968938136077 0.00032191127596538724 0 -0.034052503934815306 0.00053398104725326282 0 -0.033780359608215321 0.00027725785129208938 0 -0.033733934243706853 0.00051915408588250063 0 -0.033988968938136077 0.00032191127596538724 0 -0.032171862627975702 0.00028233535859728483 0 -0.032370977264815678 0.00025975301583093107 0 -0.032245106189575962 0.00018098851464327701 0 -0.033794075045443843 0.00011540269222760947 0 -0.033430960880732712 0.00017753332740067155 0 -0.034880892300927842 -3.5490989841914733e-05 0 -0.035001446373837328 0.00022852183150564028 0 -0.034444354378684573 0.00025386586794217119 0 -0.032245106189575962 0.00018098851464327701 0 -0.032323261578138821 8.308127203515162e-05 0 -0.032279447555517975 0.00010964297770944049 0 -0.032245106189575962 0.00018098851464327701 0 -0.032279447555517975 0.00010964297770944049 0 -0.032208395588974328 0.00010572899796162789 0 -0.032370977264815678 0.00025975301583093107 0 -0.032245106189575962 0.00018098851464327701 0 -0.032323261578138821 8.308127203515162e-05 0 -0.032323261578138821 8.308127203515162e-05 0 -0.032325839799050578 7.3835210684175699e-05 0 -0.03232593809249211 1.7284175657692401e-05 0 -0.032325839799050578 7.3835210684175699e-05 0 -0.03232597202505208 0.00014884711422045703 0 -0.03232593809249211 1.7284175657692401e-05 0 -0.032325839799050578 7.3835210684175699e-05 0 -0.032322637746400283 8.1434300320616635e-05 0 -0.032330910188099415 0.0001079902108689888 0 -0.032325839799050578 7.3835210684175699e-05 0 -0.032313303077724002 8.1539359365211694e-05 0 -0.032322637746400283 8.1434300320616635e-05 0 -0.032323261578138821 8.308127203515162e-05 0 -0.032325839799050578 7.3835210684175699e-05 0 -0.032313303077724002 8.1539359365211694e-05 0 -0.032323261578138821 8.308127203515162e-05 0 -0.032279447555517975 0.00010964297770944049 0 -0.032313303077724002 8.1539359365211694e-05 0 -0.032279447555517975 0.00010964297770944049 0 -0.032313303077724002 8.1539359365211694e-05 0 -0.032290253781548768 7.6192251597538151e-05 0 -0.032279447555517975 0.00010964297770944049 0 -0.032290253781548768 7.6192251597538151e-05 0 -0.032208395588974328 0.00010572899796162789 0 -0.032290253781548768 7.6192251597538151e-05 0 -0.032208395588974328 0.00010572899796162789 0 -0.032209821937890869 3.3288876345206936e-05 0 -0.029065508596064406 0.00090695439934346169 0 -0.028960915150324045 0.0009742211769537643 0 -0.032290253781548768 7.6192251597538151e-05 0 -0.032318650759830973 7.0979767232111541e-05 0 -0.032302248633196882 3.902209459104655e-05 0 -0.032290253781548768 7.6192251597538151e-05 0 -0.032272229856900793 -3.130692899745697e-06 0 -0.032209821937890869 3.3288876345206936e-05 0 -0.029059192946732378 0.0010024004257348062 0 -0.028960915150324045 0.0009742211769537643 0 -0.032318650759830973 7.0979767232111541e-05 0 -0.032330910188099415 0.0001079902108689888 0 -0.032368005137930894 0.00011469268738779307 0 -0.032313303077724002 8.1539359365211694e-05 0 -0.032322637746400283 8.1434300320616635e-05 0 -0.032318650759830973 7.0979767232111541e-05 0 -0.032313303077724002 8.1539359365211694e-05 0 -0.032290253781548768 7.6192251597538151e-05 0 -0.032318650759830973 7.0979767232111541e-05 0 -0.032322637746400283 8.1434300320616635e-05 0 -0.032318650759830973 7.0979767232111541e-05 0 -0.032330910188099415 0.0001079902108689888 0 -0.032330910188099415 0.0001079902108689888 0 -0.032368005137930894 0.00011469268738779307 0 -0.032343680719969542 0.00016916708087261266 0 -0.028960915150324045 0.0009742211769537643 0 -0.028200252994446461 0.00081568282073603705 0 -0.032368005137930894 0.00011469268738779307 0 -0.032343680719969542 0.00016916708087261266 0 -0.032392131477075661 0.00023303311657542458 0 -0.032343680719969542 0.00016916708087261266 0 -0.03232597202505208 0.00014884711422045703 0 -0.032307827316527711 0.00024635270707687126 0 -0.03232597202505208 0.00014884711422045703 0 -0.032307827316527711 0.00024635270707687126 0 -0.032263004160434587 0.00022413542570222169 0 -0.032330910188099415 0.0001079902108689888 0 -0.032343680719969542 0.00016916708087261266 0 -0.03232597202505208 0.00014884711422045703 0 -0.032325839799050578 7.3835210684175699e-05 0 -0.032330910188099415 0.0001079902108689888 0 -0.03232597202505208 0.00014884711422045703 0 -0.032101808145872442 0.00015895185681294799 0 -0.032008575456445747 2.1673056554984346e-05 0 -0.032128797700413804 4.2173737684433582e-05 0 -0.033733934243706853 0.00051915408588250063 0 -0.033922697769875595 0.00085100997747862572 0 -0.034052503934815306 0.00053398104725326282 0 -0.033039409374174655 0.00037334173196970687 0 -0.032418309625923611 0.00079117009278372894 0 -0.032008575456445747 2.1673056554984346e-05 0 -0.032128797700413804 4.2173737684433582e-05 0 -0.032080282192317774 -2.8182539099546249e-05 0 -0.032101808145872442 0.00015895185681294799 0 -0.032128797700413804 4.2173737684433582e-05 0 -0.032208395588974328 0.00010572899796162789 0 -0.032128797700413804 4.2173737684433582e-05 0 -0.032208395588974328 0.00010572899796162789 0 -0.032209821937890869 3.3288876345206936e-05 0 -0.032272229856900793 -3.130692899745697e-06 0 -0.032160818174169922 -5.4448942285475183e-05 0 -0.032167008024405391 -0.00017721071947924671 0 -0.028960915150324045 0.0009742211769537643 0 -0.028324343982431586 0.0011563206527395527 0 -0.032128797700413804 4.2173737684433582e-05 0 -0.032209821937890869 3.3288876345206936e-05 0 -0.032160818174169922 -5.4448942285475183e-05 0 -0.032272229856900793 -3.130692899745697e-06 0 -0.032209821937890869 3.3288876345206936e-05 0 -0.032160818174169922 -5.4448942285475183e-05 0 -0.032128797700413804 4.2173737684433582e-05 0 -0.032160818174169922 -5.4448942285475183e-05 0 -0.032080282192317774 -2.8182539099546249e-05 0 -0.032160818174169922 -5.4448942285475183e-05 0 -0.032080282192317774 -2.8182539099546249e-05 0 -0.032023330689304991 -0.00012312805233523504 0 -0.032008575456445747 2.1673056554984346e-05 0 -0.032023330689304991 -0.00012312805233523504 0 -0.031919486388352007 -0.00012474873377571046 0 -0.032008575456445747 2.1673056554984346e-05 0 -0.032080282192317774 -2.8182539099546249e-05 0 -0.032023330689304991 -0.00012312805233523504 0 -0.032023330689304991 -0.00012312805233523504 0 -0.032052036948418912 -0.00022686624202321469 0 -0.032167008024405391 -0.00017721071947924671 0 -0.032023330689304991 -0.00012312805233523504 0 -0.032052036948418912 -0.00022686624202321469 0 -0.031958828140936396 -0.00023955643385754235 0 -0.032160818174169922 -5.4448942285475183e-05 0 -0.032023330689304991 -0.00012312805233523504 0 -0.032167008024405391 -0.00017721071947924671 0 -0.028324343982431586 0.0011563206527395527 0 -0.026584816332894185 0.0014151871896783206 0 -0.027633503936894156 0.0010377478275924172 0 -0.027713732886227006 0.0007421147094068849 0 -0.027465513928651628 0.00074597228283026552 0 -0.027633503936894156 0.0010377478275924172 0 -0.027713732886227006 0.0007421147094068849 0 -0.027757703751136141 0.0010358454983934219 0 -0.026592684140573117 0.00058270503965160674 0 -0.026584816332894185 0.0014151871896783206 0 -0.032057615532636065 -0.00036898064001518487 0 -0.031958828140936396 -0.00023955643385754235 0 -0.031906416061036474 -0.00036917804374795546 0 -0.032052036948418912 -0.00022686624202321469 0 -0.032057615532636065 -0.00036898064001518487 0 -0.031958828140936396 -0.00023955643385754235 0 -0.026584816332894185 0.0014151871896783206 0 -0.028280759446309325 0.0014217040724062327 0 -0.032052036948418912 -0.00022686624202321469 0 -0.032167008024405391 -0.00017721071947924671 0 -0.032057615532636065 -0.00036898064001518487 0 -0.027802373452340937 0.0013291987048644053 0 -0.027633503936894156 0.0010377478275924172 0 -0.027757703751136141 0.0010358454983934219 0 -0.032343680719969542 0.00016916708087261266 0 -0.032307827316527711 0.00024635270707687126 0 -0.032392131477075661 0.00023303311657542458 0 -0.03239650267351301 0.00032622293992321736 0 -0.032307827316527711 0.00024635270707687126 0 -0.032392131477075661 0.00023303311657542458 0 -0.026592684140573117 0.00058270503965160674 0 -0.028200252994446461 0.00081568282073603705 0 -0.03239650267351301 0.00032622293992321736 0 -0.032307827316527711 0.00024635270707687126 0 -0.032281143008418611 0.00032697495221192742 0 -0.032307827316527711 0.00024635270707687126 0 -0.032247938036449597 0.00026467408546974316 0 -0.032281143008418611 0.00032697495221192742 0 -0.032247938036449597 0.00026467408546974316 0 -0.032178067130795816 0.00032916224123472938 0 -0.032281143008418611 0.00032697495221192742 0 -0.032307827316527711 0.00024635270707687126 0 -0.032247938036449597 0.00026467408546974316 0 -0.032263004160434587 0.00022413542570222169 0 -0.032247938036449597 0.00026467408546974316 0 -0.032215993701792747 0.00023672303886950011 0 -0.032263004160434587 0.00022413542570222169 0 -0.031729213310280828 0.00065599845722823453 0 -0.029716970770119179 0.00075159732147858768 0 -0.031091711810036737 0.00023080172832769106 0 -0.023686495326426155 0.0017330805727749222 0 -0.023913418377489056 0.00088434991088407844 0 -0.024904192358698025 0.0010830992526177548 0 -0.028347070396984912 -0.00054276787206454524 0 -0.027409775502239678 -2.5810758149073e-05 0 -0.028347070396984912 -0.00054276787206454524 0 -0.028356388579046543 -0.00053919410663522658 0 -0.028347070396984912 -0.00054276787206454524 0 -0.027606011502646053 0.00019371550362532635 0 -0.032247938036449597 0.00026467408546974316 0 -0.032215993701792747 0.00023672303886950011 0 -0.032196102404746393 0.00027886478843518246 0 -0.032247938036449597 0.00026467408546974316 0 -0.032196102404746393 0.00027886478843518246 0 -0.032178067130795816 0.00032916224123472938 0 -0.027606011502646053 0.00019371550362532635 0 -0.026822493648374031 0.00068801904859113611 0 -0.023913418377489056 0.00088434991088407844 0 -0.024489782516886532 0.00057543986996012441 0 -0.024141682561331677 2.4037312913894205e-05 0 -0.024489782516886532 0.00057543986996012441 0 -0.024904192358698025 0.0010830992526177548 0 -0.024820461682485417 8.6795063696808707e-06 0 -0.024904192358698025 0.0010830992526177548 0 -0.025525675811707924 -0.00012730438039285614 0 -0.024820461682485417 8.6795063696808707e-06 0 -0.024489782516886532 0.00057543986996012441 0 -0.024820461682485417 8.6795063696808707e-06 0 -0.024141682561331677 2.4037312913894205e-05 0 -0.023913418377489056 0.00088434991088407844 0 -0.024489782516886532 0.00057543986996012441 0 -0.024904192358698025 0.0010830992526177548 0 -0.026667576395502792 2.2918940408023293e-07 0 -0.027409775502239678 -2.5810758149073e-05 0 -0.026663354259898471 1.8286984375525657e-06 0 -0.024904192358698025 0.0010830992526177548 0 -0.025525675811707924 -0.00012730438039285614 0 -0.026669744286870908 2.8497856015322065e-06 0 -0.029716970770119179 0.00075159732147858768 0 -0.028698743187514818 -4.8337829886707729e-07 0 -0.029716970770119179 0.00075159732147858768 0 -0.031091711810036737 0.00023080172832769106 0 -0.028698743187514818 -4.8337829886707729e-07 0 -0.031091711810036737 0.00023080172832769106 0 -0.028698743187514818 -4.8337829886707729e-07 0 -0.031222024692074159 -6.7757384897694495e-05 0 -0.031404217885526074 -2.8662082335055557e-07 0 -0.028698743187514818 -4.8337829886707729e-07 0 -0.031222024692074159 -6.7757384897694495e-05 0 -0.031091711810036737 0.00023080172832769106 0 -0.031222024692074159 -6.7757384897694495e-05 0 -0.031973123244368941 2.9682333861827098e-05 0 -0.032868994973313373 5.4783918130274174e-05 0 -0.031222024692074159 -6.7757384897694495e-05 0 -0.031973123244368941 2.9682333861827098e-05 0 -0.032868994973313373 5.4783918130274174e-05 0 -0.031973123244368941 2.9682333861827098e-05 0 -0.03232593809249211 1.7284175657692401e-05 0 -0.031973123244368941 2.9682333861827098e-05 0 -0.03232593809249211 1.7284175657692401e-05 0 -0.031997328627204058 0.0001642868308762542 0 -0.03232593809249211 1.7284175657692401e-05 0 -0.032263004160434587 0.00022413542570222169 0 -0.031997328627204058 0.0001642868308762542 0 -0.03232597202505208 0.00014884711422045703 0 -0.03232593809249211 1.7284175657692401e-05 0 -0.032263004160434587 0.00022413542570222169 0 -0.031769535142803104 0.00063164497878119997 0 -0.032263004160434587 0.00022413542570222169 0 -0.031791810829561284 0.00052402150281485903 0 -0.032263004160434587 0.00022413542570222169 0 -0.031791810829561284 0.00052402150281485903 0 -0.031997328627204058 0.0001642868308762542 0 -0.028347070396984912 -0.00054276787206454524 0 -0.029293538406502583 -0.00077465172963819633 0 -0.031091711810036737 0.00023080172832769106 0 -0.031791810829561284 0.00052402150281485903 0 -0.031997328627204058 0.0001642868308762542 0 -0.031729213310280828 0.00065599845722823453 0 -0.031091711810036737 0.00023080172832769106 0 -0.031791810829561284 0.00052402150281485903 0 -0.031091711810036737 0.00023080172832769106 0 -0.031973123244368941 2.9682333861827098e-05 0 -0.031997328627204058 0.0001642868308762542 0 -0.032296002689300121 0.00051997265714323875 0 -0.030827069746609526 0.00180834018781163 0 -0.034780742292893956 -0.00026592798272304162 0 -0.034821008494804379 -0.0012139015211395394 0 -0.034310995573533863 -0.00044353502497504786 0 -0.034944933450632751 4.3992370459349674e-05 0 -0.034939978264442402 3.3562002107491117e-05 0 -0.034943722438910051 5.0090364811738025e-05 0 -0.034944933450632751 4.3992370459349674e-05 0 -0.034940805427082285 5.7186788821951136e-05 0 -0.034943722438910051 5.0090364811738025e-05 0 -0.034944933450632751 4.3992370459349674e-05 0 -0.034940851106371268 6.5170772459588334e-05 0 -0.034940805427082285 5.7186788821951136e-05 0 -0.034944933450632751 4.3992370459349674e-05 0 -0.034940791427458581 2.9965329726045555e-05 0 -0.034958155766622173 2.8364251399838018e-05 0 -0.034944933450632751 4.3992370459349674e-05 0 -0.034940791427458581 2.9965329726045555e-05 0 -0.034939978264442402 3.3562002107491117e-05 0 -0.032296002689300121 0.00051997265714323875 0 -0.03274074174249321 0.0003383718667719974 0 -0.034940791427458581 2.9965329726045555e-05 0 -0.034939978264442402 3.3562002107491117e-05 0 -0.034893333409568572 4.675287437539233e-05 0 -0.034780742292893956 -0.00026592798272304162 0 -0.034893333409568572 4.675287437539233e-05 0 -0.034378068945606348 5.1042452042081878e-05 0 -0.034893333409568572 4.675287437539233e-05 0 -0.034999883964210235 1.0104752014332545e-07 0 -0.034962324659293949 2.8849425456480848e-05 0 -0.034893333409568572 4.675287437539233e-05 0 -0.034999883964210235 1.0104752014332545e-07 0 -0.034755521989927748 5.833332272516434e-05 0 -0.034999883964210235 1.0104752014332545e-07 0 -0.034962324659293949 2.8849425456480848e-05 0 -0.034999952970494269 -6.8275669182585589e-10 0 -0.034940791427458581 2.9965329726045555e-05 0 -0.034893333409568572 4.675287437539233e-05 0 -0.034962324659293949 2.8849425456480848e-05 0 -0.034940791427458581 2.9965329726045555e-05 0 -0.034962324659293949 2.8849425456480848e-05 0 -0.034958155766622173 2.8364251399838018e-05 0 -0.034958155766622173 2.8364251399838018e-05 0 -0.034976855001199021 9.1546123640792314e-06 0 -0.034959160114562848 2.0882530082571907e-05 0 -0.034962324659293949 2.8849425456480848e-05 0 -0.034958155766622173 2.8364251399838018e-05 0 -0.034976855001199021 9.1546123640792314e-06 0 -0.034999952970494269 -6.8275669182585589e-10 0 -0.034976855001199021 9.1546123640792314e-06 0 -0.034999960308668435 7.5388611333649166e-09 0 -0.034962324659293949 2.8849425456480848e-05 0 -0.034999952970494269 -6.8275669182585589e-10 0 -0.034976855001199021 9.1546123640792314e-06 0 -0.034976855001199021 9.1546123640792314e-06 0 -0.034999960308668435 7.5388611333649166e-09 0 -0.034971174211878134 -4.3319026961455292e-06 0 -0.034971174211878134 -4.3319026961455292e-06 0 -0.034959160114562848 2.0882530082571907e-05 0 -0.034917924564346843 1.5978959661506716e-05 0 -0.034976855001199021 9.1546123640792314e-06 0 -0.034971174211878134 -4.3319026961455292e-06 0 -0.034959160114562848 2.0882530082571907e-05 0 -0.034959160114562848 2.0882530082571907e-05 0 -0.034928655349957927 4.6424609264378133e-05 0 -0.034917924564346843 1.5978959661506716e-05 0 -0.034928655349957927 4.6424609264378133e-05 0 -