<?xml version="1.0"?>
<VTKFile type="UnstructuredGrid" version="0.1" byte_order="LittleEndian">
<UnstructuredGrid>
<Piece NumberOfPoints="31898" NumberOfCells="11152">
<Points>
<DataArray type="Float64" NumberOfComponents="3" format="ascii">
-0.5 -0.5 0 -0.47620991077874902 -0.44978878706170539 0 -0.49999999999999473 -0.42132396840504388 0 -0.5 -0.5 0 -0.47160970827802529 -0.4793630013852106 0 -0.47620991077874902 -0.44978878706170539 0 -0.5 -0.5 0 -0.47160970827802529 -0.4793630013852106 0 -0.44860394795025399 -0.5 0 -0.47160970827802529 -0.4793630013852106 0 -0.44860394795025399 -0.5 0 -0.4490820238307246 -0.45820516232899983 0 -0.44860394795025399 -0.5 0 -0.4490820238307246 -0.45820516232899983 0 -0.42881687682924802 -0.47781464288736519 0 -0.4490820238307246 -0.45820516232899983 0 -0.45555437223955858 -0.42914059360647611 0 -0.4490820238307246 -0.45820516232899983 0 -0.45555437223955858 -0.42914059360647611 0 -0.43867285131603428 -0.4271457417558665 0 -0.4490820238307246 -0.45820516232899983 0 -0.43867285131603428 -0.4271457417558665 0 -0.4263356171060747 -0.44269880333887462 0 -0.47160970827802529 -0.4793630013852106 0 -0.4490820238307246 -0.45820516232899983 0 -0.47620991077874902 -0.44978878706170539 0 -0.4490820238307246 -0.45820516232899983 0 -0.47620991077874902 -0.44978878706170539 0 -0.45555437223955858 -0.42914059360647611 0 -0.47620991077874902 -0.44978878706170539 0 -0.48101336032419229 -0.41069999664450008 0 -0.45555437223955858 -0.42914059360647611 0 -0.47620991077874902 -0.44978878706170539 0 -0.49999999999999473 -0.42132396840504388 0 -0.48101336032419229 -0.41069999664450008 0 -0.49999999999999473 -0.42132396840504388 0 -0.48101336032419229 -0.41069999664450008 0 -0.5 -0.393886241813306 0 -0.49999999999999473 -0.42132396840504388 0 -0.48101336032419229 -0.41069999664450008 0 -0.5 -0.393886241813306 0 -0.47854472220918332 -0.38978458738689759 0 -0.48422759779560409 -0.37130120630367158 0 -0.5 -0.393886241813306 0 -0.5 -0.36644851522156802 0 -0.48422759779560409 -0.37130120630367158 0 -0.48101336032419229 -0.41069999664450008 0 -0.5 -0.393886241813306 0 -0.47854472220918332 -0.38978458738689759 0 -0.48101336032419229 -0.41069999664450008 0 -0.47854472220918332 -0.38978458738689759 0 -0.46202672064839212 -0.40007602488395211 0 -0.48101336032419229 -0.41069999664450008 0 -0.46202672064839212 -0.40007602488395211 0 -0.47854472220918332 -0.38978458738689759 0 -0.46725442735267431 -0.37660061361585562 0 -0.46202672064839212 -0.40007602488395211 0 -0.47854472220918332 -0.38978458738689759 0 -0.46725442735267431 -0.37660061361585562 0 -0.48422759779560409 -0.37130120630367158 0 -0.46725442735267431 -0.37660061361585562 0 -0.46202672064839212 -0.40007602488395211 0 -0.46725442735267431 -0.37660061361585562 0 -0.45645674801697989 -0.38644133236760531 0 -0.46202672064839212 -0.40007602488395211 0 -0.46725442735267431 -0.37660061361585562 0 -0.45645674801697989 -0.38644133236760531 0 -0.4540003998136638 -0.37455519391687309 0 -0.45645674801697989 -0.38644133236760531 0 -0.46202672064839212 -0.40007602488395211 0 -0.44257020456291563 -0.38918913383950271 0 -0.46202672064839212 -0.40007602488395211 0 -0.44257020456291563 -0.38918913383950271 0 -0.44727608925983742 -0.41095911152778891 0 -0.46202672064839212 -0.40007602488395211 0 -0.44257020456291563 -0.38918913383950271 0 -0.44257020456291563 -0.38918913383950271 0 -0.44727608925983742 -0.41095911152778891 0 -0.43479358559901082 -0.4041454901736512 0 -0.44257020456291563 -0.38918913383950271 0 -0.4540003998136638 -0.37455519391687309 0 -0.44172858264042247 -0.37082207246888088 0 -0.45645674801697989 -0.38644133236760531 0 -0.44257020456291563 -0.38918913383950271 0 -0.4540003998136638 -0.37455519391687309 0 -0.46202672064839212 -0.40007602488395211 0 -0.45555437223955858 -0.42914059360647611 0 -0.44727608925983742 -0.41095911152778891 0 -0.46202672064839212 -0.40007602488395211 0 -0.45555437223955858 -0.42914059360647611 0 -0.48101336032419229 -0.41069999664450008 0 -0.46202672064839212 -0.40007602488395211 0 -0.45555437223955858 -0.42914059360647611 0 -0.44727608925983742 -0.41095911152778891 0 -0.43867285131603428 -0.4271457417558665 0 -0.43676601469929588 -0.41441201227470881 0 -0.44727608925983742 -0.41095911152778891 0 -0.43676601469929588 -0.41441201227470881 0 -0.43479358559901082 -0.4041454901736512 0 -0.45555437223955858 -0.42914059360647611 0 -0.44727608925983742 -0.41095911152778891 0 -0.43867285131603428 -0.4271457417558665 0 -0.43867285131603428 -0.4271457417558665 0 -0.42681803064840879 -0.42717069814352421 0 -0.4263356171060747 -0.44269880333887462 0 -0.42681803064840879 -0.42717069814352421 0 -0.41531815884496182 -0.42985383783075998 0 -0.4263356171060747 -0.44269880333887462 0 -0.42681803064840879 -0.42717069814352421 0 -0.42624289495594048 -0.42089725947505818 0 -0.42083332353326591 -0.42146747131641099 0 -0.42681803064840879 -0.42717069814352421 0 -0.43096994786351572 -0.41951492446283251 0 -0.42624289495594048 -0.42089725947505818 0 -0.43867285131603428 -0.4271457417558665 0 -0.42681803064840879 -0.42717069814352421 0 -0.43096994786351572 -0.41951492446283251 0 -0.43867285131603428 -0.4271457417558665 0 -0.43676601469929588 -0.41441201227470881 0 -0.43096994786351572 -0.41951492446283251 0 -0.43676601469929588 -0.41441201227470881 0 -0.43096994786351572 -0.41951492446283251 0 -0.42907264086257813 -0.41311715872526122 0 -0.43676601469929588 -0.41441201227470881 0 -0.42907264086257813 -0.41311715872526122 0 -0.43479358559901082 -0.4041454901736512 0 -0.42907264086257813 -0.41311715872526122 0 -0.43479358559901082 -0.4041454901736512 0 -0.42460885511582858 -0.40417321677700252 0 -0.42907264086257813 -0.41311715872526122 0 -0.41997834854398469 -0.41180534796019508 0 -0.42907264086257813 -0.41311715872526122 0 -0.42635027777857132 -0.41543594397746519 0 -0.41997834854398469 -0.41180534796019508 0 -0.42907264086257813 -0.41311715872526122 0 -0.41997834854398469 -0.41180534796019508 0 -0.42460885511582858 -0.40417321677700252 0 -0.42635027777857132 -0.41543594397746519 0 -0.41997834854398469 -0.41180534796019508 0 -0.42635027777857132 -0.41543594397746519 0 -0.42083332353326591 -0.42146747131641099 0 -0.41997834854398469 -0.41180534796019508 0 -0.43096994786351572 -0.41951492446283251 0 -0.42624289495594048 -0.42089725947505818 0 -0.42635027777857132 -0.41543594397746519 0 -0.43096994786351572 -0.41951492446283251 0 -0.42907264086257813 -0.41311715872526122 0 -0.42635027777857132 -0.41543594397746519 0 -0.42624289495594048 -0.42089725947505818 0 -0.42635027777857132 -0.41543594397746519 0 -0.42083332353326591 -0.42146747131641099 0 -0.42083332353326591 -0.42146747131641099 0 -0.41997834854398469 -0.41180534796019508 0 -0.40992282953163789 -0.42011435591993562 0 -0.41997834854398469 -0.41180534796019508 0 -0.39756877647335259 -0.40857286797681719 0 -0.41997834854398469 -0.41180534796019508 0 -0.40992282953163789 -0.42011435591993562 0 -0.39756877647335259 -0.40857286797681719 0 -0.40992282953163789 -0.42011435591993562 0 -0.41531815884496182 -0.42985383783075998 0 -0.39591554026262499 -0.42887225451549271 0 -0.41531815884496182 -0.42985383783075998 0 -0.39591554026262499 -0.42887225451549271 0 -0.41160927495564159 -0.44339431233754628 0 -0.42083332353326591 -0.42146747131641099 0 -0.40992282953163789 -0.42011435591993562 0 -0.41531815884496182 -0.42985383783075998 0 -0.42681803064840879 -0.42717069814352421 0 -0.42083332353326591 -0.42146747131641099 0 -0.41531815884496182 -0.42985383783075998 0 -0.44257020456291563 -0.38918913383950271 0 -0.42311368847744002 -0.37830224279505142 0 -0.42594061475171041 -0.39368797999533162 0 -0.44257020456291563 -0.38918913383950271 0 -0.42311368847744002 -0.37830224279505142 0 -0.44172858264042247 -0.37082207246888088 0 -0.44257020456291563 -0.38918913383950271 0 -0.42311368847744002 -0.37830224279505142 0 -0.42311368847744002 -0.37830224279505142 0 -0.42594061475171041 -0.39368797999533162 0 -0.416587075656149 -0.38785930376960043 0 -0.44257020456291563 -0.38918913383950271 0 -0.42594061475171041 -0.39368797999533162 0 -0.43479358559901082 -0.4041454901736512 0 -0.42594061475171041 -0.39368797999533162 0 -0.43479358559901082 -0.4041454901736512 0 -0.42460885511582858 -0.40417321677700252 0 -0.41997834854398469 -0.41180534796019508 0 -0.41325908582185972 -0.39811010703057192 0 -0.39770572831670092 -0.39911486077581648 0 -0.41997834854398469 -0.41180534796019508 0 -0.39770572831670092 -0.39911486077581648 0 -0.42594061475171041 -0.39368797999533162 0 -0.42460885511582858 -0.40417321677700252 0 -0.41325908582185972 -0.39811010703057192 0 -0.41997834854398469 -0.41180534796019508 0 -0.42460885511582858 -0.40417321677700252 0 -0.41325908582185972 -0.39811010703057192 0 -0.42594061475171041 -0.39368797999533162 0 -0.41325908582185972 -0.39811010703057192 0 -0.416587075656149 -0.38785930376960043 0 -0.41325908582185972 -0.39811010703057192 0 -0.416587075656149 -0.38785930376960043 0 -0.40403491357358612 -0.38133688525744702 0 -0.42311368847744002 -0.37830224279505142 0 -0.40403491357358612 -0.38133688525744702 0 -0.40365717239196519 -0.36741535175059892 0 -0.42311368847744002 -0.37830224279505142 0 -0.416587075656149 -0.38785930376960043 0 -0.40403491357358612 -0.38133688525744702 0 -0.40403491357358612 -0.38133688525744702 0 -0.39190790742475001 -0.38540387676521748 0 -0.39770572831670092 -0.39911486077581648 0 -0.40403491357358612 -0.38133688525744702 0 -0.39190790742475001 -0.38540387676521748 0 -0.3904578797192948 -0.37473938743617019 0 -0.41325908582185972 -0.39811010703057192 0 -0.40403491357358612 -0.38133688525744702 0 -0.39770572831670092 -0.39911486077581648 0 -0.39770572831670092 -0.39911486077581648 0 -0.37543310808941849 -0.38642437359143528 0 -0.39770572831670092 -0.39911486077581648 0 -0.37515920440272033 -0.40534038799344108 0 -0.37543310808941849 -0.38642437359143528 0 -0.39770572831670092 -0.39911486077581648 0 -0.37515920440272033 -0.40534038799344108 0 -0.39756877647335259 -0.40857286797681719
[...]
<PointData Scalars="" Vectors="displacement," Tensors="">
<DataArray type="Float64" Name="displacement" NumberOfComponents="3" format="ascii">
-1.7047915152984925e-06 -0.034996797230552289 0 -0.00017033427576515527 -0.032725693315403363 0 3.6180847607181106e-06 -0.029500848432940048 0 -1.7047915152984925e-06 -0.034996797230552289 0 -0.00015691851843835692 -0.034202566214048047 0 -0.00017033427576515527 -0.032725693315403363 0 -1.7047915152984925e-06 -0.034996797230552289 0 -0.00015691851843835692 -0.034202566214048047 0 1.5311989734101137e-09 -0.034999156752131173 0 -0.00015691851843835692 -0.034202566214048047 0 1.5311989734101137e-09 -0.034999156752131173 0 -8.5199033867057672e-05 -0.034207308544412736 0 1.5311989734101137e-09 -0.034999156752131173 0 -8.5199033867057672e-05 -0.034207308544412736 0 -6.8441729565000403e-05 -0.034778934434375346 0 -0.00027420812523506626 -0.032025485901576389 0 7.3737616816478742e-05 -0.031093873661420385 0 -8.5199033867057672e-05 -0.034207308544412736 0 0.00045085155808533402 -0.034144869088928859 0 0.00048731497636840125 -0.034398519683244963 0 -8.5199033867057672e-05 -0.034207308544412736 0 0.00048731497636840125 -0.034398519683244963 0 0.00023866052319964807 -0.034631413357535799 0 -0.00015691851843835692 -0.034202566214048047 0 -8.5199033867057672e-05 -0.034207308544412736 0 -0.00017033427576515527 -0.032725693315403363 0 -8.5199033867057672e-05 -0.034207308544412736 0 -0.00017033427576515527 -0.032725693315403363 0 0.00062699314137689148 -0.033390017009618335 0 -0.00017033427576515527 -0.032725693315403363 0 0.0013313747446168714 -0.031631854183055391 0 0.00062699314137689148 -0.033390017009618335 0 -0.00017033427576515527 -0.032725693315403363 0 3.6180847607181106e-06 -0.029500848432940048 0 0.0013313747446168714 -0.031631854183055391 0 1.9828387228227887e-06 -0.029489651760822234 0 0.00030166972126466471 -0.027192262803513608 0 -8.3698696227859054e-07 -0.027572046800993292 0 1.4344887057654834e-06 -0.029491419585950876 0 0.00061326378342504756 -0.028913079472088887 0 -8.3698696227859054e-07 -0.027572046800993292 0 -7.9848744917804129e-05 -0.026487619358908056 0 -0.00016817276824857222 -0.025781027492438716 0 -8.3698696227859054e-07 -0.027572046800993292 0 -2.5566055157547269e-07 -0.025651173296479032 0 -0.00016817276824857222 -0.025781027492438716 0 0.00030166972126466471 -0.027192262803513608 0 -8.3698696227859054e-07 -0.027572046800993292 0 -7.9848744917804129e-05 -0.026487619358908056 0 0.00030166972126466471 -0.027192262803513608 0 -7.9848744917804129e-05 -0.026487619358908056 0 0.00013202806127122449 -0.026227288225462969 0 0.00061326378342504756 -0.028913079472088887 0 0.00098571380613835511 -0.027774664608720016 0 -7.9848744917804129e-05 -0.026487619358908056 0 -0.00020725594564754795 -0.026002408357106686 0 0.00013202806127122449 -0.026227288225462969 0 -7.9848744917804129e-05 -0.026487619358908056 0 -0.00020725594564754795 -0.026002408357106686 0 -0.00016817276824857222 -0.025781027492438716 0 0.00082336509552286853 -0.025251643464199645 0 0.00098571380613835511 -0.027774664608720016 0 0.0014780747624359304 -0.020283589753976452 0 0.0013932113466282483 -0.02035640849737308 0 0.0012922311479414274 -0.020319820605998233 0 0.0014780747624359304 -0.020283589753976452 0 0.0013932113466282483 -0.02035640849737308 0 0.0014676240813996458 -0.020363556053169449 0 0.0013932113466282483 -0.02035640849737308 0 0.0012922311479414274 -0.020319820605998233 0 0.001365978726359487 -0.020455377303588294 0 0.0007756403093503888 -0.034146614803050805 0 0.00081805179315390354 -0.034348832780531323 0 0.00067476691157991619 -0.034287054047660075 0 0.00098571380613835511 -0.027774664608720016 0 0.0010545890596637957 -0.027440953797280721 0 0.00081805179315390354 -0.034348832780531323 0 0.00067476691157991619 -0.034287054047660075 0 0.00073283134188367911 -0.034404580422145385 0 0.001365978726359487 -0.020455377303588294 0 0.0014676240813996458 -0.020363556053169449 0 0.0014876985160730911 -0.020455846064532057 0 0.0013932113466282483 -0.02035640849737308 0 0.001365978726359487 -0.020455377303588294 0 0.0014676240813996458 -0.020363556053169449 0 0.0007756403093503888 -0.034146614803050805 0 0.00045085155808533402 -0.034144869088928859 0 0.00067476691157991619 -0.034287054047660075 0 0.00098571380613835511 -0.027774664608720016 0 7.3737616816478742e-05 -0.031093873661420385 0 0.0013313747446168714 -0.031631854183055391 0 0.0020570390015886265 -0.032813753519310436 0 0.00062699314137689148 -0.033390017009618335 0 0.00067476691157991619 -0.034287054047660075 0 0.00048731497636840125 -0.034398519683244963 0 0.00065025735110144588 -0.034403564086635162 0 0.00067476691157991619 -0.034287054047660075 0 0.00065025735110144588 -0.034403564086635162 0 0.00073283134188367911 -0.034404580422145385 0 0.00045085155808533402 -0.034144869088928859 0 0.00067476691157991619 -0.034287054047660075 0 0.00048731497636840125 -0.034398519683244963 0 0.00048731497636840125 -0.034398519683244963 0 0.00047417888421098184 -0.034579847853216737 0 0.00023866052319964807 -0.034631413357535799 0 0.00047417888421098184 -0.034579847853216737 0 0.0004282112719388761 -0.03476357171933421 0 0.00023866052319964807 -0.034631413357535799 0 0.00047417888421098184 -0.034579847853216737 0 0.00056717523386605787 -0.034570620914167349 0 0.00055596001063825773 -0.034664835303143515 0 0.00047417888421098184 -0.034579847853216737 0 0.00058932264300806745 -0.034487324150345236 0 0.00056717523386605787 -0.034570620914167349 0 0.00048731497636840125 -0.034398519683244963 0 0.00047417888421098184 -0.034579847853216737 0 0.00058932264300806745 -0.034487324150345236 0 0.00048731497636840125 -0.034398519683244963 0 0.00065025735110144588 -0.034403564086635162 0 0.00058932264300806745 -0.034487324150345236 0 0.00065025735110144588 -0.034403564086635162 0 0.00058932264300806745 -0.034487324150345236 0 0.00069393390554598855 -0.034475777543746096 0 0.00065025735110144588 -0.034403564086635162 0 0.00069393390554598855 -0.034475777543746096 0 0.00073283134188367911 -0.034404580422145385 0 0.00069393390554598855 -0.034475777543746096 0 0.00073283134188367911 -0.034404580422145385 0 0.00073764426185764784 -0.034441129278945895 0 0.0014795248691786742 -0.033748850366684013 0 0.0014963721288102319 -0.033657458974315969 0 0.00069393390554598855 -0.034475777543746096 0 0.00065043870536234615 -0.034551351283181736 0 0.00074612279450480819 -0.034710088801602146 0 0.00069393390554598855 -0.034475777543746096 0 0.00073833093490158588 -0.034444126058327369 0 0.00073764426185764784 -0.034441129278945895 0 0.0014908354087098663 -0.033698212371759025 0 0.0014963721288102319 -0.033657458974315969 0 0.00065043870536234615 -0.034551351283181736 0 0.00055596001063825773 -0.034664835303143515 0 0.00071269093291254993 -0.034676605593438437 0 0.00058932264300806745 -0.034487324150345236 0 0.00056717523386605787 -0.034570620914167349 0 0.00065043870536234615 -0.034551351283181736 0 0.00058932264300806745 -0.034487324150345236 0 0.00069393390554598855 -0.034475777543746096 0 0.00065043870536234615 -0.034551351283181736 0 0.00056717523386605787 -0.034570620914167349 0 0.00065043870536234615 -0.034551351283181736 0 0.00055596001063825773 -0.034664835303143515 0 0.00055596001063825773 -0.034664835303143515 0 0.00071269093291254993 -0.034676605593438437 0 0.00057711665963781141 -0.034839194844459576 0 0.0014963721288102319 -0.033657458974315969 0 0.0012415502314039356 -0.033407326824924366 0 0.00071269093291254993 -0.034676605593438437 0 0.00057711665963781141 -0.034839194844459576 0 0.0007504224393418442 -0.035025884314000014 0 0.00057711665963781141 -0.034839194844459576 0 0.0004282112719388761 -0.03476357171933421 0 0.00044503292586081352 -0.035051450771092389 0 0.0004282112719388761 -0.03476357171933421 0 0.00044503292586081352 -0.035051450771092389 0 0.00022911708416813948 -0.034829927128071515 0 0.00055596001063825773 -0.034664835303143515 0 0.00057711665963781141 -0.034839194844459576 0 0.0004282112719388761 -0.03476357171933421 0 0.00047417888421098184 -0.034579847853216737 0 0.00055596001063825773 -0.034664835303143515 0 0.0004282112719388761 -0.03476357171933421 0 0.00081805179315390354 -0.034348832780531323 0 0.00076808695082278885 -0.034417704319623099 0 0.00076597826495663449 -0.034421655137446383 0 0.001365978726359487 -0.020455377303588294 0 0.0014307621232871408 -0.020601848453818059 0 0.0014876985160730911 -0.020455846064532057 0 0.0010545890596637957 -0.027440953797280721 0 0.0011535424307618704 -0.027203946176635904 0 0.00076808695082278885 -0.034417704319623099 0 0.00076597826495663449 -0.034421655137446383 0 0.00076045175274311121 -0.034416921966808359 0 0.00081805179315390354 -0.034348832780531323 0 0.00076597826495663449 -0.034421655137446383 0 0.00073283134188367911 -0.034404580422145385 0 0.00076597826495663449 -0.034421655137446383 0 0.00073283134188367911 -0.034404580422145385 0 0.00073764426185764784 -0.034441129278945895 0 0.00073833093490158588 -0.034444126058327369 0 0.00075880062609809688 -0.034422686383797689 0 0.00077873246919466573 -0.034387730793003182 0 0.0014963721288102319 -0.033657458974315969 0 0.0016550673734927041 -0.032632946693294425 0 0.00076597826495663449 -0.034421655137446383 0 0.00073764426185764784 -0.034441129278945895 0 0.00075880062609809688 -0.034422686383797689 0 0.00073833093490158588 -0.034444126058327369 0 0.00073764426185764784 -0.034441129278945895 0 0.00075880062609809688 -0.034422686383797689 0 0.00076597826495663449 -0.034421655137446383 0 0.00075880062609809688 -0.034422686383797689 0 0.00076045175274311121 -0.034416921966808359 0 0.00075880062609809688 -0.034422686383797689 0 0.00076045175274311121 -0.034416921966808359 0 0.0007459402914706542 -0.034399195329451425 0 0.00076808695082278885 -0.034417704319623099 0 0.0007459402914706542 -0.034399195329451425 0 0.00073545595502065911 -0.034393118514988892 0 0.00076808695082278885 -0.034417704319623099 0 0.00076045175274311121 -0.034416921966808359 0 0.0007459402914706542 -0.034399195329451425 0 0.0007459402914706542 -0.034399195329451425 0 0.00074924754376514465 -0.034356474915902657 0 0.00077873246919466573 -0.034387730793003182 0 0.0007459402914706542 -0.034399195329451425 0 0.00074924754376514465 -0.034356474915902657 0 0.00071140673710137206 -0.034344334754164055 0 0.00075880062609809688 -0.034422686383797689 0 0.0007459402914706542 -0.034399195329451425 0 0.00077873246919466573 -0.034387730793003182 0 0.0016550673734927041 -0.032632946693294425 0 0.0015727499671643369 -0.030216680962197578 0 0.0015125290119410663 -0.032441738404983572 0 0.0017726240833047127 -0.03149812540959835 0 0.00098245289228032274 -0.031508394306355311 0 0.0015125290119410663 -0.032441738404983572 0 0.0017726240833047127 -0.03149812540959835 0 0.0019080184805556331 -0.032436404284055885 0 0.00086252341067695113 -0.032423665389836549 0 0.0015727499671643369 -0.030216680962197578 0 0.00075712212773091888 -0.034288198110785977 0 0.00071140673710137206 -0.034344334754164055 0 0.00068827794447641857 -0.034278512611426941 0 0.00074924754376514465 -0.034356474915902657 0 0.00075712212773091888 -0.034288198110785977 0 0.00071140673710137206 -0.034344334754164055 0 0.0015727499671643369 -0.030216680962197578 0 0.0012398623492573012 -0.0282317105456459 0 0.00074924754376514465 -0.034356474915902657 0 0.00077873246919466573 -0.034387730793003182 0 0.00075712212773091888 -0.034288198110785977 0 0.0020427886558130226 -0.033375453962481635 0 0.0015125290119410663 -0.032441738404983572 0 0.0019080184805556331 -0.032436404284055885 0 0.00057711665963781141 -0.034839194844459576 0 0.00044503292586081352 -0.035051450771092389 0 0.0007504224393418442 -0.035025884314000014 0 0.00079595279918576352 -0.035355030026430402 0 0.00044503292586081352 -0.035051450771092389 0 0.0007504224393418442 -0.035025884314000014 0 0.00086252341067695113 -0.032423665389836549 0 0.0012415502314039356 -0.033407326824924366 0 0.00079595279918576352 -0.035355030026430402 0 0.00044503292586081352 -0.035051450771092389 0 0.00034874607154843426 -0.035360986594036664 0 0.00044503292586081352 -0.035051450771092389 0 0.00018687534121107074 -0.035094839976714282 0 0.00034874607154843426 -0.035360986594036664 0 0.00018687534121107074 -0.035094839976714282 0 -8.7979197188784973e-05 -0.03536533778675479 0 0.00034874607154843426 -0.035360986594036664 0 0.00044503292586081352 -0.035051450771092389 0 0.00018687534121107074 -0.035094839976714282 0 0.00022911708416813948 -0.034829927128071515 0 0.00018687534121107074 -0.035094839976714282 0 2.9098677564760678e-05 -0.03493837760612737 0 0.00022911708416813948 -0.034829927128071515 0 5.4927033780131684e-05 -0.034906310778615092 0 -1.9478867315899519e-05 -0.034964045170094042 0 -1.8679439692426411e-05 -0.034864912538947766 0 2.3305561813929428e-06 -0.034997699538672163 0 1.92352081236822e-06 -0.03499894488419892 0 5.7250066736632598e-07 -0.034998927375367264 0 6.1295577671500751e-05 -0.034935759339665556 0 9.3878824528082717e-06 -0.034978240038609665 0 6.1295577671500751e-05 -0.034935759339665556 0 6.1394507210541012e-05 -0.034935280770078056 0 6.1295577671500751e-05 -0.034935759339665556 0 6.4497807787870817e-05 -0.034909554301331816 0 0.00018687534121107074 -0.035094839976714282 0 2.9098677564760678e-05 -0.03493837760612737 0 -2.9447364155852955e-05 -0.035151080678613569 0 0.00018687534121107074 -0.035094839976714282 0 -2.9447364155852955e-05 -0.035151080678613569 0 -8.7979197188784973e-05 -0.03536533778675479 0 6.4497807787870817e-05 -0.034909554301331816 0 0.0001146797776292567 -0.034734257418431225 0 1.92352081236822e-06 -0.03499894488419892 0 1.0640269462104303e-06 -0.034999324592517575 0 1.5713646207866106e-06 -0.034999909409382274 0 1.0640269462104303e-06 -0.034999324592517575 0 5.7250066736632598e-07 -0.034998927375367264 0 4.7428474033787861e-07 -0.034999861867850562 0 5.7250066736632598e-07 -0.034998927375367264 0 3.2287031291919507e-07 -0.03499985151923321 0 4.7428474033787861e-07 -0.034999861867850562 0 1.0640269462104303e-06 -0.034999324592517575 0 4.7428474033787861e-07 -0.034999861867850562 0 1.5713646207866106e-06 -0.034999909409382274 0 1.92352081236822e-06 -0.03499894488419892 0 1.0640269462104303e-06 -0.034999324592517575 0 5.7250066736632598e-07 -0.034998927375367264 0 -1.1901930032716936e-08 -0.034999970903007882 0 9.3878824528082717e-06 -0.034978240038609665 0 -4.8128491041545236e-10 -0.034999999025019934 0 5.7250066736632598e-07 -0.034998927375367264 0 3.2287031291919507e-07 -0.03499985151923321 0 5.6984411029919101e-08 -0.034999984748315026 0 -1.9478867315899519e-05 -0.034964045170094042 0 -1.3853249864089127e-07 -0.034999912343656903 0 -1.9478867315899519e-05 -0.034964045170094042 0 -1.8679439692426411e-05 -0.034864912538947766 0 -1.3853249864089127e-07 -0.034999912343656903 0 -1.8679439692426411e-05 -0.034864912538947766 0 -1.3853249864089127e-07 -0.034999912343656903 0 -6.8441729565000403e-05 -0.034778934434375346 0 1.5311989734101137e-09 -0.034999156752131173 0 -1.3853249864089127e-07 -0.034999912343656903 0 -6.8441729565000403e-05 -0.034778934434375346 0 -1.8679439692426411e-05 -0.034864912538947766 0 -6.8441729565000403e-05 -0.034778934434375346 0 8.2968764778934625e-06 -0.034683659189336642 0 -8.5199033867057672e-05 -0.034207308544412736 0 -6.8441729565000403e-05 -0.034778934434375346 0 8.2968764778934625e-06 -0.034683659189336642 0 -8.5199033867057672e-05 -0.034207308544412736 0 8.2968764778934625e-06 -0.034683659189336642 0 0.00023866052319964807 -0.034631413357535799 0 8.2968764778934625e-06 -0.034683659189336642 0 0.00023866052319964807 -0.034631413357535799 0 9.1744416573577101e-05 -0.034785185588947616 0 0.00023866052319964807 -0.034631413357535799 0 0.00022911708416813948 -0.034829927128071515 0 9.1744416573577101e-05 -0.034785185588947616 0 0.0004282112719388761 -0.03476357171933421 0 0.00023866052319964807 -0.034631413357535799 0 0.00022911708416813948 -0.034829927128071515 0 5.453402393380761e-05 -0.034920998514728463 0 0.00022911708416813948 -0.034829927128071515 0 6.3106389290563112e-05 -0.034890121874527828 0 0.00022911708416813948 -0.034829927128071515 0 6.3106389290563112e-05 -0.034890121874527828 0 9.1744416573577101e-05 -0.034785185588947616 0 6.1295577671500751e-05 -0.034935759339665556 0 9.7223436225908925e-05 -0.03491480268675258 0 -1.8679439692426411e-05 -0.034864912538947766 0 6.3106389290563112e-05 -0.034890121874527828 0 9.1744416573577101e-05 -0.034785185588947616 0 5.4927033780131684e-05 -0.034906310778615092 0 -1.8679439692426411e-05 -0.034864912538947766 0 6.3106389290563112e-05 -0.034890121874527828 0 -1.8679439692426411e-05 -0.034864912538947766 0 8.2968764778934625e-06 -0.034683659189336642 0 9.1744416573577101e-05 -0.034785185588947616 0 0.0012748591848179491 -0.017939753442025589 0 0.0018314702142096697 -0.016867754912969431 0 0.00048332514717314579 -0.017604473401148242 0 0.0005834875159323995 -0.017052803919828 0 0.0003214325109654225 -0.017428728880375964 0 -0.0001321074398114056 -0.019555177066733685 0 0.00011629185414592963 -0.019522174695102743 0 4.4513246209230852e-05 -0.019627181013052723 0 -0.0001321074398114056 -0.019555177066733685 0 -8.3985881811889475e-05 -0.019568019998524522 0 4.4513246209230852e-05 -0.019627181013052723 0 -0.0001321074398114056 -0.019555177066733685 0 -6.7715143586209977e-05 -0.019477274038279785 0 -8.3985881811889475e-05 -0.019568019998524522 0 -0.0001321074398114056 -0.019555177066733685 0 -0.0001257122523369202 -0.0193035686960287 0 -0.00018536216026651025 -0.019643595079319686 0 -0.0001321074398114056 -0.019555177066733685 0 -0.0001257122523369202 -0.0193035686960287 0 0.00011629185414592963 -0.019522174695102743 0 0.0012748591848179491 -0.017939753442025589 0 0.0010918918108079789 -0.018138430751613119 0 -0.0001257122523369202 -0.0193035686960287 0 0.00011629185414592963 -0.019522174695102743 0 0.00012568671865970926 -0.018512112906042245 0 0.00048332514717314579 -0.017604473401148242 0 0.00012568671865970926 -0.018512112906042245 0 4.5410765549374246e-05 -0.017848664425425358 0 0.00012568671865970926 -0.018512112906042245 0 -4.4185142445273454e-07 -0.017968599033850435 0 -0.00012993093909716418 -0.019265842655049797 0 0.00012568671865970926 -0.018512112906042245 0 -4.4185142445273454e-07 -0.017968599033850435 0 -2.7318161988726301e-05 -0.017571910614765995 0 -4.4185142445273454e-07 -0.017968599033850435 0 -0.00012993093909716418 -0.019265842655049797 0 -3.6616728695746487e-07 -0.019889469664407775 0 -0.0001257122523369202 -0.0193035686960287 0 0.00012568671865970926 -0.018512112906042245 0 -0.00012993093909716418 -0.019265842655049797 0 -0.0001257122523369202 -0.0193035686960287 0 -0.00012993093909716418 -0.019265842655049797 0 -0.00018536216026651025 -0.019643595079319686 0 -0.00018536216026651025 -0.019643595079319686 0 -7.5980948445008445e-05 -0.020267048941875743 0 -1.9082270039866856e-05 -0.020130160480491568 0 -0.00012993093909716418 -0.019265842655049797 0 -0.00018536216026651025 -0.019643595079319686 0 -7.5980948445008445e-05 -0.020267048941875743 0 -3.6616728695746487e-07 -0.019889469664407775 0 -7.5980948445008445e-05 -0.020267048941875743 0 4.6727815472106931e-07 -0.021809977897355587 0 -0.00012993093909716418 -0.019265842655049797 0 -3.6616728695746487e-07 -0.019889469664407775 0 -7.5980948445008445e-05 -0.020267048941875743 0 -7.5980948445008445e-05 -0.020267048941875743 0 4.6727815472106931e-07 -0.021809977897355587 0 0.00015235289964228579 -0.021041697517478343 0 0.00015235289964228579 -0.021041697517478343 0 -1.9082270039866856e-05 -0.020130160480491568 0 0.00056991841315627242 -0.02036039249592109 0 -7.5980948445008445e-05 -0.020267048941875743 0 0.00015235289964228579 -0.021041697517478343 0 -1.9082270039866856e-05 -0.020130160480491568 0 -1.9082270039866856e-05 -0.020130160480491568 0 0.00027257608245591104 -0.019880772178210153 0 0.00056991841315627242 -0.02036039249592109 0 0.00027257608245591104 -0.019880772178210153 0 0.0001974819620060256 -0.019545478634833725 0 0.0005