<?xml version="1.0"?>
<VTKFile type="UnstructuredGrid" version="0.1" byte_order="LittleEndian">
<UnstructuredGrid>
<Piece NumberOfPoints="31898" NumberOfCells="11152">
<Points>
<DataArray type="Float64" NumberOfComponents="3" format="ascii">
-0.5 -0.5 0 -0.47620991077874902 -0.44978878706170539 0 -0.49999999999999473 -0.42132396840504388 0 -0.5 -0.5 0 -0.47160970827802529 -0.4793630013852106 0 -0.47620991077874902 -0.44978878706170539 0 -0.5 -0.5 0 -0.47160970827802529 -0.4793630013852106 0 -0.44860394795025399 -0.5 0 -0.47160970827802529 -0.4793630013852106 0 -0.44860394795025399 -0.5 0 -0.4490820238307246 -0.45820516232899983 0 -0.44860394795025399 -0.5 0 -0.4490820238307246 -0.45820516232899983 0 -0.42881687682924802 -0.47781464288736519 0 -0.4490820238307246 -0.45820516232899983 0 -0.45555437223955858 -0.42914059360647611 0 -0.4490820238307246 -0.45820516232899983 0 -0.45555437223955858 -0.42914059360647611 0 -0.43867285131603428 -0.4271457417558665 0 -0.4490820238307246 -0.45820516232899983 0 -0.43867285131603428 -0.4271457417558665 0 -0.4263356171060747 -0.44269880333887462 0 -0.47160970827802529 -0.4793630013852106 0 -0.4490820238307246 -0.45820516232899983 0 -0.47620991077874902 -0.44978878706170539 0 -0.4490820238307246 -0.45820516232899983 0 -0.47620991077874902 -0.44978878706170539 0 -0.45555437223955858 -0.42914059360647611 0 -0.47620991077874902 -0.44978878706170539 0 -0.48101336032419229 -0.41069999664450008 0 -0.45555437223955858 -0.42914059360647611 0 -0.47620991077874902 -0.44978878706170539 0 -0.49999999999999473 -0.42132396840504388 0 -0.48101336032419229 -0.41069999664450008 0 -0.49999999999999473 -0.42132396840504388 0 -0.48101336032419229 -0.41069999664450008 0 -0.5 -0.393886241813306 0 -0.49999999999999473 -0.42132396840504388 0 -0.48101336032419229 -0.41069999664450008 0 -0.5 -0.393886241813306 0 -0.47854472220918332 -0.38978458738689759 0 -0.48422759779560409 -0.37130120630367158 0 -0.5 -0.393886241813306 0 -0.5 -0.36644851522156802 0 -0.48422759779560409 -0.37130120630367158 0 -0.48101336032419229 -0.41069999664450008 0 -0.5 -0.393886241813306 0 -0.47854472220918332 -0.38978458738689759 0 -0.48101336032419229 -0.41069999664450008 0 -0.47854472220918332 -0.38978458738689759 0 -0.46202672064839212 -0.40007602488395211 0 -0.48101336032419229 -0.41069999664450008 0 -0.46202672064839212 -0.40007602488395211 0 -0.47854472220918332 -0.38978458738689759 0 -0.46725442735267431 -0.37660061361585562 0 -0.46202672064839212 -0.40007602488395211 0 -0.47854472220918332 -0.38978458738689759 0 -0.46725442735267431 -0.37660061361585562 0 -0.48422759779560409 -0.37130120630367158 0 -0.46725442735267431 -0.37660061361585562 0 -0.46202672064839212 -0.40007602488395211 0 -0.46725442735267431 -0.37660061361585562 0 -0.45645674801697989 -0.38644133236760531 0 -0.46202672064839212 -0.40007602488395211 0 -0.46725442735267431 -0.37660061361585562 0 -0.45645674801697989 -0.38644133236760531 0 -0.4540003998136638 -0.37455519391687309 0 -0.45645674801697989 -0.38644133236760531 0 -0.46202672064839212 -0.40007602488395211 0 -0.44257020456291563 -0.38918913383950271 0 -0.46202672064839212 -0.40007602488395211 0 -0.44257020456291563 -0.38918913383950271 0 -0.44727608925983742 -0.41095911152778891 0 -0.46202672064839212 -0.40007602488395211 0 -0.44257020456291563 -0.38918913383950271 0 -0.44257020456291563 -0.38918913383950271 0 -0.44727608925983742 -0.41095911152778891 0 -0.43479358559901082 -0.4041454901736512 0 -0.44257020456291563 -0.38918913383950271 0 -0.4540003998136638 -0.37455519391687309 0 -0.44172858264042247 -0.37082207246888088 0 -0.45645674801697989 -0.38644133236760531 0 -0.44257020456291563 -0.38918913383950271 0 -0.4540003998136638 -0.37455519391687309 0 -0.46202672064839212 -0.40007602488395211 0 -0.45555437223955858 -0.42914059360647611 0 -0.44727608925983742 -0.41095911152778891 0 -0.46202672064839212 -0.40007602488395211 0 -0.45555437223955858 -0.42914059360647611 0 -0.48101336032419229 -0.41069999664450008 0 -0.46202672064839212 -0.40007602488395211 0 -0.45555437223955858 -0.42914059360647611 0 -0.44727608925983742 -0.41095911152778891 0 -0.43867285131603428 -0.4271457417558665 0 -0.43676601469929588 -0.41441201227470881 0 -0.44727608925983742 -0.41095911152778891 0 -0.43676601469929588 -0.41441201227470881 0 -0.43479358559901082 -0.4041454901736512 0 -0.45555437223955858 -0.42914059360647611 0 -0.44727608925983742 -0.41095911152778891 0 -0.43867285131603428 -0.4271457417558665 0 -0.43867285131603428 -0.4271457417558665 0 -0.42681803064840879 -0.42717069814352421 0 -0.4263356171060747 -0.44269880333887462 0 -0.42681803064840879 -0.42717069814352421 0 -0.41531815884496182 -0.42985383783075998 0 -0.4263356171060747 -0.44269880333887462 0 -0.42681803064840879 -0.42717069814352421 0 -0.42624289495594048 -0.42089725947505818 0 -0.42083332353326591 -0.42146747131641099 0 -0.42681803064840879 -0.42717069814352421 0 -0.43096994786351572 -0.41951492446283251 0 -0.42624289495594048 -0.42089725947505818 0 -0.43867285131603428 -0.4271457417558665 0 -0.42681803064840879 -0.42717069814352421 0 -0.43096994786351572 -0.41951492446283251 0 -0.43867285131603428 -0.4271457417558665 0 -0.43676601469929588 -0.41441201227470881 0 -0.43096994786351572 -0.41951492446283251 0 -0.43676601469929588 -0.41441201227470881 0 -0.43096994786351572 -0.41951492446283251 0 -0.42907264086257813 -0.41311715872526122 0 -0.43676601469929588 -0.41441201227470881 0 -0.42907264086257813 -0.41311715872526122 0 -0.43479358559901082 -0.4041454901736512 0 -0.42907264086257813 -0.41311715872526122 0 -0.43479358559901082 -0.4041454901736512 0 -0.42460885511582858 -0.40417321677700252 0 -0.42907264086257813 -0.41311715872526122 0 -0.41997834854398469 -0.41180534796019508 0 -0.42907264086257813 -0.41311715872526122 0 -0.42635027777857132 -0.41543594397746519 0 -0.41997834854398469 -0.41180534796019508 0 -0.42907264086257813 -0.41311715872526122 0 -0.41997834854398469 -0.41180534796019508 0 -0.42460885511582858 -0.40417321677700252 0 -0.42635027777857132 -0.41543594397746519 0 -0.41997834854398469 -0.41180534796019508 0 -0.42635027777857132 -0.41543594397746519 0 -0.42083332353326591 -0.42146747131641099 0 -0.41997834854398469 -0.41180534796019508 0 -0.43096994786351572 -0.41951492446283251 0 -0.42624289495594048 -0.42089725947505818 0 -0.42635027777857132 -0.41543594397746519 0 -0.43096994786351572 -0.41951492446283251 0 -0.42907264086257813 -0.41311715872526122 0 -0.42635027777857132 -0.41543594397746519 0 -0.42624289495594048 -0.42089725947505818 0 -0.42635027777857132 -0.41543594397746519 0 -0.42083332353326591 -0.42146747131641099 0 -0.42083332353326591 -0.42146747131641099 0 -0.41997834854398469 -0.41180534796019508 0 -0.40992282953163789 -0.42011435591993562 0 -0.41997834854398469 -0.41180534796019508 0 -0.39756877647335259 -0.40857286797681719 0 -0.41997834854398469 -0.41180534796019508 0 -0.40992282953163789 -0.42011435591993562 0 -0.39756877647335259 -0.40857286797681719 0 -0.40992282953163789 -0.42011435591993562 0 -0.41531815884496182 -0.42985383783075998 0 -0.39591554026262499 -0.42887225451549271 0 -0.41531815884496182 -0.42985383783075998 0 -0.39591554026262499 -0.42887225451549271 0 -0.41160927495564159 -0.44339431233754628 0 -0.42083332353326591 -0.42146747131641099 0 -0.40992282953163789 -0.42011435591993562 0 -0.41531815884496182 -0.42985383783075998 0 -0.42681803064840879 -0.42717069814352421 0 -0.42083332353326591 -0.42146747131641099 0 -0.41531815884496182 -0.42985383783075998 0 -0.44257020456291563 -0.38918913383950271 0 -0.42311368847744002 -0.37830224279505142 0 -0.42594061475171041 -0.39368797999533162 0 -0.44257020456291563 -0.38918913383950271 0 -0.42311368847744002 -0.37830224279505142 0 -0.44172858264042247 -0.37082207246888088 0 -0.44257020456291563 -0.38918913383950271 0 -0.42311368847744002 -0.37830224279505142 0 -0.42311368847744002 -0.37830224279505142 0 -0.42594061475171041 -0.39368797999533162 0 -0.416587075656149 -0.38785930376960043 0 -0.44257020456291563 -0.38918913383950271 0 -0.42594061475171041 -0.39368797999533162 0 -0.43479358559901082 -0.4041454901736512 0 -0.42594061475171041 -0.39368797999533162 0 -0.43479358559901082 -0.4041454901736512 0 -0.42460885511582858 -0.40417321677700252 0 -0.41997834854398469 -0.41180534796019508 0 -0.41325908582185972 -0.39811010703057192 0 -0.39770572831670092 -0.39911486077581648 0 -0.41997834854398469 -0.41180534796019508 0 -0.39770572831670092 -0.39911486077581648 0 -0.42594061475171041 -0.39368797999533162 0 -0.42460885511582858 -0.40417321677700252 0 -0.41325908582185972 -0.39811010703057192 0 -0.41997834854398469 -0.41180534796019508 0 -0.42460885511582858 -0.40417321677700252 0 -0.41325908582185972 -0.39811010703057192 0 -0.42594061475171041 -0.39368797999533162 0 -0.41325908582185972 -0.39811010703057192 0 -0.416587075656149 -0.38785930376960043 0 -0.41325908582185972 -0.39811010703057192 0 -0.416587075656149 -0.38785930376960043 0 -0.40403491357358612 -0.38133688525744702 0 -0.42311368847744002 -0.37830224279505142 0 -0.40403491357358612 -0.38133688525744702 0 -0.40365717239196519 -0.36741535175059892 0 -0.42311368847744002 -0.37830224279505142 0 -0.416587075656149 -0.38785930376960043 0 -0.40403491357358612 -0.38133688525744702 0 -0.40403491357358612 -0.38133688525744702 0 -0.39190790742475001 -0.38540387676521748 0 -0.39770572831670092 -0.39911486077581648 0 -0.40403491357358612 -0.38133688525744702 0 -0.39190790742475001 -0.38540387676521748 0 -0.3904578797192948 -0.37473938743617019 0 -0.41325908582185972 -0.39811010703057192 0 -0.40403491357358612 -0.38133688525744702 0 -0.39770572831670092 -0.39911486077581648 0 -0.39770572831670092 -0.39911486077581648 0 -0.37543310808941849 -0.38642437359143528 0 -0.39770572831670092 -0.39911486077581648 0 -0.37515920440272033 -0.40534038799344108 0 -0.37543310808941849 -0.38642437359143528 0 -0.39770572831670092 -0.39911486077581648 0 -0.37515920440272033 -0.40534038799344108 0 -0.39756877647335259 -0.40857286797681719
[...]
<PointData Scalars="" Vectors="displacement," Tensors="">
<DataArray type="Float64" Name="displacement" NumberOfComponents="3" format="ascii">
-0.034997530003991993 -0.034998044472208376 0 -0.032642554962930538 -0.0343976596140462 0 -0.029503235285828149 -0.034995367549033256 0 -0.034997530003991993 -0.034998044472208376 0 -0.034461192122064228 -0.03374557444008381 0 -0.032642554962930538 -0.0343976596140462 0 -0.034997530003991993 -0.034998044472208376 0 -0.034461192122064228 -0.03374557444008381 0 -0.034998041705847582 -0.031405375079127454 0 -0.034461192122064228 -0.03374557444008381 0 -0.034998041705847582 -0.031405375079127454 0 -0.034703745197105118 -0.033323813062025885 0 -0.034998041705847582 -0.031405375079127454 0 -0.034703745197105118 -0.033323813062025885 0 -0.035133771214948727 -0.030754973911765272 0 -0.034123918395168616 -0.034307390976127713 0 -0.03407720609644814 -0.034599817291866952 0 -0.034703745197105118 -0.033323813062025885 0 -0.038068413564213512 -0.033879789026825827 0 -0.038322618770400878 -0.032137089553803455 0 -0.034703745197105118 -0.033323813062025885 0 -0.038322618770400878 -0.032137089553803455 0 -0.036866912111864915 -0.030853054139429136 0 -0.034461192122064228 -0.03374557444008381 0 -0.034703745197105118 -0.033323813062025885 0 -0.032642554962930538 -0.0343976596140462 0 -0.034703745197105118 -0.033323813062025885 0 -0.032642554962930538 -0.0343976596140462 0 -0.031833485478658129 -0.035036594003346501 0 -0.032642554962930538 -0.0343976596140462 0 -0.030344530371779983 -0.034649006700359933 0 -0.031833485478658129 -0.035036594003346501 0 -0.032642554962930538 -0.0343976596140462 0 -0.029503235285828149 -0.034995367549033256 0 -0.030344530371779983 -0.034649006700359933 0 -0.029492673312351791 -0.034999997927987941 0 -0.028748744972483527 -0.036324650058409888 0 -0.027572039643408392 -0.034999997271160529 0 -0.029493987734271601 -0.035000609119176268 0 -0.030104062040404889 -0.035240878788780371 0 -0.027572039643408392 -0.034999997271160529 0 -0.027286510724533662 -0.036496706081039769 0 -0.025992354478730502 -0.036100383395901582 0 -0.027572039643408392 -0.034999997271160529 0 -0.025651397790746534 -0.034999996235266007 0 -0.025992354478730502 -0.036100383395901582 0 -0.028748744972483527 -0.036324650058409888 0 -0.027572039643408392 -0.034999997271160529 0 -0.027286510724533662 -0.036496706081039769 0 -0.028748744972483527 -0.036324650058409888 0 -0.027286510724533662 -0.036496706081039769 0 -0.028007824829201885 -0.037647631153710989 0 -0.030104062040404889 -0.035240878788780371 0 -0.031344924679237059 -0.034687604558661662 0 -0.027286510724533662 -0.036496706081039769 0 -0.026364585405295651 -0.037284925811678055 0 -0.028007824829201885 -0.037647631153710989 0 -0.027286510724533662 -0.036496706081039769 0 -0.026364585405295651 -0.037284925811678055 0 -0.025992354478730502 -0.036100383395901582 0 -0.026793778660443825 -0.035534261320638243 0 -0.031344924679237059 -0.034687604558661662 0 -0.024767614351409575 -0.037109710866626025 0 -0.024883617556525895 -0.037275200224994809 0 -0.025075419650379665 -0.037198578171070279 0 -0.024767614351409575 -0.037109710866626025 0 -0.024883617556525895 -0.037275200224994809 0 -0.024695060872752486 -0.037323873239517143 0 -0.024883617556525895 -0.037275200224994809 0 -0.025075419650379665 -0.037198578171070279 0 -0.024906195587980788 -0.037467949601483988 0 -0.040716763909614748 -0.034264427416816255 0 -0.041579564591592219 -0.03250294342465309 0 -0.039761420483981194 -0.032966116816573493 0 -0.031344924679237059 -0.034687604558661662 0 -0.031889012905739672 -0.034126999918357354 0 -0.041579564591592219 -0.03250294342465309 0 -0.039761420483981194 -0.032966116816573493 0 -0.040334712727216303 -0.031839622385144838 0 -0.024906195587980788 -0.037467949601483988 0 -0.024695060872752486 -0.037323873239517143 0 -0.024633458813826874 -0.037480765427152 0 -0.024883617556525895 -0.037275200224994809 0 -0.024906195587980788 -0.037467949601483988 0 -0.024695060872752486 -0.037323873239517143 0 -0.040716763909614748 -0.034264427416816255 0 -0.038068413564213512 -0.033879789026825827 0 -0.039761420483981194 -0.032966116816573493 0 -0.031344924679237059 -0.034687604558661662 0 -0.03407720609644814 -0.034599817291866952 0 -0.030344530371779983 -0.034649006700359933 0 -0.030176362430661172 -0.035196971715192288 0 -0.031833485478658129 -0.035036594003346501 0 -0.039761420483981194 -0.032966116816573493 0 -0.038322618770400878 -0.032137089553803455 0 -0.039460893571368387 -0.03199602924304016 0 -0.039761420483981194 -0.032966116816573493 0 -0.039460893571368387 -0.03199602924304016 0 -0.040334712727216303 -0.031839622385144838 0 -0.038068413564213512 -0.033879789026825827 0 -0.039761420483981194 -0.032966116816573493 0 -0.038322618770400878 -0.032137089553803455 0 -0.038322618770400878 -0.032137089553803455 0 -0.038297004255481298 -0.031009519197913907 0 -0.036866912111864915 -0.030853054139429136 0 -0.038297004255481298 -0.031009519197913907 0 -0.03804535155618298 -0.029976733412636607 0 -0.036866912111864915 -0.030853054139429136 0 -0.038297004255481298 -0.031009519197913907 0 -0.038867013963638605 -0.030987778584311117 0 -0.038806697658901906 -0.030485321230548576 0 -0.038297004255481298 -0.031009519197913907 0 -0.039000807584677291 -0.031444606040980462 0 -0.038867013963638605 -0.030987778584311117 0 -0.038322618770400878 -0.032137089553803455 0 -0.038297004255481298 -0.031009519197913907 0 -0.039000807584677291 -0.031444606040980462 0 -0.038322618770400878 -0.032137089553803455 0 -0.039460893571368387 -0.03199602924304016 0 -0.039000807584677291 -0.031444606040980462 0 -0.039460893571368387 -0.03199602924304016 0 -0.039000807584677291 -0.031444606040980462 0 -0.03959766165933544 -0.031313948267727126 0 -0.039460893571368387 -0.03199602924304016 0 -0.03959766165933544 -0.031313948267727126 0 -0.040334712727216303 -0.031839622385144838 0 -0.03959766165933544 -0.031313948267727126 0 -0.040334712727216303 -0.031839622385144838 0 -0.040327029485697156 -0.031002994365642821 0 -0.038376230182744435 -0.029021441371363449 0 -0.038360978837265539 -0.028757191647046335 0 -0.03959766165933544 -0.031313948267727126 0 -0.039365166706477779 -0.031016651389767339 0 -0.039756092319213503 -0.030335272135640842 0 -0.03959766165933544 -0.031313948267727126 0 -0.039740065193761297 -0.030639681925257237 0 -0.040327029485697156 -0.031002994365642821 0 -0.03834746428157805 -0.028866048497996871 0 -0.038360978837265539 -0.028757191647046335 0 -0.039365166706477779 -0.031016651389767339 0 -0.038806697658901906 -0.030485321230548576 0 -0.039682061126410491 -0.030410043413401196 0 -0.039000807584677291 -0.031444606040980462 0 -0.038867013963638605 -0.030987778584311117 0 -0.039365166706477779 -0.031016651389767339 0 -0.039000807584677291 -0.031444606040980462 0 -0.03959766165933544 -0.031313948267727126 0 -0.039365166706477779 -0.031016651389767339 0 -0.038867013963638605 -0.030987778584311117 0 -0.039365166706477779 -0.031016651389767339 0 -0.038806697658901906 -0.030485321230548576 0 -0.038806697658901906 -0.030485321230548576 0 -0.039682061126410491 -0.030410043413401196 0 -0.038923155752071073 -0.02950568371029923 0 -0.038360978837265539 -0.028757191647046335 0 -0.038560296745449592 -0.027482740142551157 0 -0.039682061126410491 -0.030410043413401196 0 -0.038923155752071073 -0.02950568371029923 0 -0.039941037040356488 -0.028413086554467476 0 -0.038923155752071073 -0.02950568371029923 0 -0.03804535155618298 -0.029976733412636607 0 -0.038149154738626262 -0.028272836609457036 0 -0.03804535155618298 -0.029976733412636607 0 -0.038149154738626262 -0.028272836609457036 0 -0.036873580135301183 -0.029667612243596347 0 -0.038806697658901906 -0.030485321230548576 0 -0.038923155752071073 -0.02950568371029923 0 -0.03804535155618298 -0.029976733412636607 0 -0.038297004255481298 -0.031009519197913907 0 -0.038806697658901906 -0.030485321230548576 0 -0.03804535155618298 -0.029976733412636607 0 -0.041579564591592219 -0.03250294342465309 0 -0.042318329509970429 -0.030901340238201961 0 -0.041156802880706146 -0.03112460006466404 0 -0.024906195587980788 -0.037467949601483988 0 -0.024731799343113148 -0.037706300141314875 0 -0.024633458813826874 -0.037480765427152 0 -0.031889012905739672 -0.034126999918357354 0 -0.031976787556923091 -0.032989441921373035 0 -0.042318329509970429 -0.030901340238201961 0 -0.041156802880706146 -0.03112460006466404 0 -0.041579153841075335 -0.030402087936984779 0 -0.041579564591592219 -0.03250294342465309 0 -0.041156802880706146 -0.03112460006466404 0 -0.040334712727216303 -0.031839622385144838 0 -0.041156802880706146 -0.03112460006466404 0 -0.040334712727216303 -0.031839622385144838 0 -0.040327029485697156 -0.031002994365642821 0 -0.039740065193761297 -0.030639681925257237 0 -0.040802932206152977 -0.03014342204311319 0 -0.040745576135306279 -0.028994624768347382 0 -0.038360978837265539 -0.028757191647046335 0 -0.038289572772019373 -0.027327885798277118 0 -0.041156802880706146 -0.03112460006466404 0 -0.040327029485697156 -0.031002994365642821 0 -0.040802932206152977 -0.03014342204311319 0 -0.039740065193761297 -0.030639681925257237 0 -0.040327029485697156 -0.031002994365642821 0 -0.040802932206152977 -0.03014342204311319 0 -0.041156802880706146 -0.03112460006466404 0 -0.040802932206152977 -0.03014342204311319 0 -0.041579153841075335 -0.030402087936984779 0 -0.040802932206152977 -0.03014342204311319 0 -0.041579153841075335 -0.030402087936984779 0 -0.04203518085337634 -0.029449250468851305 0 -0.042318329509970429 -0.030901340238201961 0 -0.04203518085337634 -0.029449250468851305 0 -0.043087078382240407 -0.029422358222068363 0 -0.042318329509970429 -0.030901340238201961 0 -0.041579153841075335 -0.030402087936984779 0 -0.04203518085337634 -0.029449250468851305 0 -0.04203518085337634 -0.029449250468851305 0 -0.041724614412122454 -0.02860120329670475 0 -0.040745576135306279 -0.028994624768347382 0 -0.04203518085337634 -0.029449250468851305 0 -0.041724614412122454 -0.02860120329670475 0 -0.042455001958958849 -0.02850635113449132 0 -0.040802932206152977 -0.03014342204311319 0 -0.04203518085337634 -0.029449250468851305 0 -0.040745576135306279 -0.028994624768347382 0 -0.038289572772019373 -0.027327885798277118 0 -0.037449056770810285 -0.02554563830360539 0 -0.038426841534156056 -0.027028538450158728 0 -0.038140065055535112 -0.025990056110277781 0 -0.039008840977454912 -0.026002228010362619 0 -0.038426841534156056 -0.027028538450158728 0 -0.038140065055535112 -0.025990056110277781 0 -0.037991603073342907 -0.027022577975175089 0 -0.038627181051234728 -0.025776875351876942 0 -0.037449056770810285 -0.02554563830360539 0 -0.041654550661257506 -0.027469452422460086 0 -0.042455001958958849 -0.02850635113449132 0 -0.042822634781286645 -0.02750432483836892 0 -0.041724614412122454 -0.02860120329670475 0 -0.041654550661257506 -0.027469452422460086 0 -0.042455001958958849 -0.02850635113449132 0 -0.037449056770810285 -0.02554563830360539 0 -0.035548166780789807 -0.026162711252550118 0 -0.041724614412122454 -0.02860120329670475 0 -0.040745576135306279 -0.028994624768347382 0 -0.041654550661257506 -0.027469452422460086 0 -0.037843744921908402 -0.028057501595895071 0 -0.038426841534156056 -0.027028538450158728 0 -0.037991603073342907 -0.027022577975175089 0 -0.038923155752071073 -0.02950568371029923 0 -0.038149154738626262 -0.028272836609457036 0 -0.039941037040356488 -0.028413086554467476 0 -0.040222874781114415 -0.026440898533062123 0 -0.038149154738626262 -0.028272836609457036 0 -0.039941037040356488 -0.028413086554467476 0 -0.038627181051234728 -0.025776875351876942 0 -0.038560296745449592 -0.027482740142551157 0 -0.040222874781114415 -0.026440898533062123 0 -0.038149154738626262 -0.028272836609457036 0 -0.037570234512212496 -0.026407215079680562 0 -0.038149154738626262 -0.028272836609457036 0 -0.036593936280850191 -0.02801942945692034 0 -0.037570234512212496 -0.026407215079680562 0 -0.036593936280850191 -0.02801942945692034 0 -0.034920431218999827 -0.026370439502617474 0 -0.037570234512212496 -0.026407215079680562 0 -0.038149154738626262 -0.028272836609457036 0 -0.036593936280850191 -0.02801942945692034 0 -0.036873580135301183 -0.029667612243596347 0 -0.036593936280850191 -0.02801942945692034 0 -0.035625915930172766 -0.028986906263811105 0 -0.036873580135301183 -0.029667612243596347 0 -0.036130029353665202 -0.029218723031414907 0 -0.03562513422381549 -0.028129176530890171 0 -0.035628047315957201 -0.029568557215056513 0 -0.037938262511385969 -0.02824407695637211 0 -0.037662259662521312 -0.027224425139063514 0 -0.036477097126545122 -0.027455979780549242 0 -0.03676410295024176 -0.027736939009103366 0 -0.035934749271885183 -0.027326151030253924 0 -0.03676410295024176 -0.027736939009103366 0 -0.036764985604029174 -0.027751053148990103 0 -0.03676410295024176 -0.027736939009103366 0 -0.03679614112904455 -0.027126563217004476 0 -0.036593936280850191 -0.02801942945692034 0 -0.035625915930172766 -0.028986906263811105 0 -0.03527374442354498 -0.027676680724014208 0 -0.036593936280850191 -0.02801942945692034 0 -0.03527374442354498 -0.027676680724014208 0 -0.034920431218999827 -0.026370439502617474 0 -0.03679614112904455 -0.027126563217004476 0 -0.036852361724645441 -0.026305960567961237 0 -0.037662259662521312 -0.027224425139063514 0 -0.036971331252944238 -0.026856296111336806 0 -0.037386195910507035 -0.026200858176934586 0 -0.036971331252944238 -0.026856296111336806 0 -0.036477097126545122 -0.027455979780549242 0 -0.036576340052533476 -0.026186961768935989 0 -0.036477097126545122 -0.027455979780549242 0 -0.035713863836597845 -0.026067575344369251 0 -0.036576340052533476 -0.026186961768935989 0 -0.036971331252944238 -0.026856296111336806 0 -0.036576340052533476 -0.026186961768935989 0 -0.037386195910507035 -0.026200858176934586 0 -0.037662259662521312 -0.027224425139063514 0 -0.036971331252944238 -0.026856296111336806 0 -0.036477097126545122 -0.027455979780549242 0 -0.035000744804527063 -0.026667082962952251 0 -0.035934749271885183 -0.027326151030253924 0 -0.035000002070545613 -0.026666278411284258 0 -0.036477097126545122 -0.027455979780549242 0 -0.035713863836597845 -0.026067575344369251 0 -0.034999896384032635 -0.026667460367605984 0 -0.03562513422381549 -0.028129176530890171 0 -0.034999139441946887 -0.028699004030555201 0 -0.03562513422381549 -0.028129176530890171 0 -0.035628047315957201 -0.029568557215056513 0 -0.034999139441946887 -0.028699004030555201 0 -0.035628047315957201 -0.029568557215056513 0 -0.034999139441946887 -0.028699004030555201 0 -0.035133771214948727 -0.030754973911765272 0 -0.034998041705847582 -0.031405375079127454 0 -0.034999139441946887 -0.028699004030555201 0 -0.035133771214948727 -0.030754973911765272 0 -0.035628047315957201 -0.029568557215056513 0 -0.035133771214948727 -0.030754973911765272 0 -0.035595787797504504 -0.030813645719780416 0 -0.034703745197105118 -0.033323813062025885 0 -0.035133771214948727 -0.030754973911765272 0 -0.035595787797504504 -0.030813645719780416 0 -0.034703745197105118 -0.033323813062025885 0 -0.035595787797504504 -0.030813645719780416 0 -0.036866912111864915 -0.030853054139429136 0 -0.035595787797504504 -0.030813645719780416 0 -0.036866912111864915 -0.030853054139429136 0 -0.036167122552737074 -0.030018386495894143 0 -0.036866912111864915 -0.030853054139429136 0 -0.036873580135301183 -0.029667612243596347 0 -0.036167122552737074 -0.030018386495894143 0 -0.03804535155618298 -0.029976733412636607 0 -0.036866912111864915 -0.030853054139429136 0 -0.036873580135301183 -0.029667612243596347 0 -0.036090234459062231 -0.029214002069782974 0 -0.036873580135301183 -0.029667612243596347 0 -0.036127957655275815 -0.029358869702085195 0 -0.036873580135301183 -0.029667612243596347 0 -0.036127957655275815 -0.029358869702085195 0 -0.036167122552737074 -0.030018386495894143 0 -0.03676410295024176 -0.027736939009103366 0 -0.036865043892428187 -0.027971687180631144 0 -0.035628047315957201 -0.029568557215056513 0 -0.036127957655275815 -0.029358869702085195 0 -0.036167122552737074 -0.030018386495894143 0 -0.036130029353665202 -0.029218723031414907 0 -0.035628047315957201 -0.029568557215056513 0 -0.036127957655275815 -0.029358869702085195 0 -0.035628047315957201 -0.029568557215056513 0 -0.035595787797504504 -0.030813645719780416 0 -0.036167122552737074 -0.030018386495894143 0 -0.01485222522680494 -0.036814053915290849 0 -0.013186933599621484 -0.034784973319911698 0 -0.017691599236446642 -0.037999111943289719 0 -0.017596216264605734 -0.040240510484547229 0 -0.016415327230313907 -0.038546475225426084 0 -0.019243368137123257 -0.038380305671758402 0 -0.017903483680615912 -0.037928229684523841 0 -0.017785977479635881 -0.039458209384087645 0 -0.019243368137123257 -0.038380305671758402 0 -0.019171279624459695 -0.039708753018428848 0 -0.017785977479635881 -0.039458209384087645 0 -0.019243368137123257 -0.038380305671758402 0 -0.020464251538429897 -0.038961805564235487 0 -0.019171279624459695 -0.039708753018428848 0 -0.019243368137123257 -0.038380305671758402 0 -0.018738610704318953 -0.037200163029114636 0 -0.019789232292375995 -0.037066126414564499 0 -0.019243368137123257 -0.038380305671758402 0 -0.018738610704318953 -0.037200163029114636 0 -0.017903483680615912 -0.037928229684523841 0 -0.01485222522680494 -0.036814053915290849 0 -0.015394299569116813 -0.036736322045033562 0 -0.018738610704318953 -0.037200163029114636 0 -0.017903483680615912 -0.037928229684523841 0 -0.017970829673941927 -0.036344007560831178 0 -0.017691599236446642 -0.037999111943289719 0 -0.017970829673941927 -0.036344007560831178 0 -0.016149505879102154 -0.036777376034245399 0 -0.017970829673941927 -0.036344007560831178 0 -0.017968737779246131 -0.034999734839921443 0 -0.019159385009570408 -0.036063540422917026 0 -0.017970829673941927 -0.036344007560831178 0 -0.017968737779246131 -0.034999734839921443 0 -0.016795236110382229 -0.035715046174888056 0 -0.017968737779246131 -0.034999734839921443 0 -0.019159385009570408 -0.036063540422917026 0 -0.019889422505356077 -0.034999985996401591 0 -0.018738610704318953 -0.037200163029114636 0 -0.017970829673941927 -0.036344007560831178 0 -0.019159385009570408 -0.036063540422917026 0 -0.018738610704318953 -0.037200163029114636 0 -0.019159385009570408 -0.036063540422917026 0 -0.019789232292375995 -0.037066126414564499 0 -0.019789232292375995 -0.037066126414564499 0 -0.020416136839955308 -0.035945140943692326 0 -0.020870121971880408 -0.0368990095882058 0 -0.019159385009570408 -0.036063540422917026 0 -0.019789232292375995 -0.037066126414564499 0 -0.020416136839955308 -0.035945140943692326 0 -0.019889422505356077 -0.034999985996401591 0 -0.020416136839955308 -0.035945140943692326 0 -0.021810073239570991 -0.034999961712075513 0 -0.019159385009570408 -0.036063540422917026 0 -0.019889422505356077 -0.034999985996401591 0 -0.020416136839955308 -0.035945140943692326 0 -0.020416136839955308 -0.035945140943692326 0 -0.021810073239570991 -0.034999961712075513 0 -0.021409001810808438 -0.036153770721430216 0 -0.021409001810808438 -0.036153770721430216 0 -0.020870121971880408 -0.0368990095882058 0 -0.022001455766211049 -0.036865843911726648 0 -0.020416136839955308 -0.035945140943692326 0 -0.021409001810808438 -0.036153770721430216 0 -0.020870121971880408 -0.0368990095882058 0 -0.020870121971880408 -0.0368990095882058 0 -0.0214323530487446 -0.037609049618758737 0 -0.022001455766211049 -0.036865843911726648 0 -0.0214323530487446 -0.037609049618758737 0 -0.021216783726122072 -0.038537293357421495 0 -0.021935352657029655 -0.03818805578218587 0 -0.0214323530487446 -0.037609049618758737 0 -0.020480189796802054 -0.037902513180329299 0 -0.021216783726122072 -0.038537293357421495 0 -0.020870121971880408 -0.0368990095882058 0 -0.0214323530487446 -0.037609049618758737 0 -0.020480189796802054 -0.037902513180329299 0 -0.019243368137123257 -0.038380305671758402 0 -0.019789232292375995 -0.037066126414564499 0 -0.020480189796802054 -0.037902513180329299 0 -0.019789232292375995 -0.037066126414564499 0 -0.020870121