<?xml version="1.0"?>
<VTKFile type="UnstructuredGrid" version="0.1" byte_order="LittleEndian">
<UnstructuredGrid>
<Piece NumberOfPoints="31898" NumberOfCells="11152">
<Points>
<DataArray type="Float64" NumberOfComponents="3" format="ascii">
-0.5 -0.5 0 -0.47620991077874902 -0.44978878706170539 0 -0.49999999999999473 -0.42132396840504388 0 -0.5 -0.5 0 -0.47160970827802529 -0.4793630013852106 0 -0.47620991077874902 -0.44978878706170539 0 -0.5 -0.5 0 -0.47160970827802529 -0.4793630013852106 0 -0.44860394795025399 -0.5 0 -0.47160970827802529 -0.4793630013852106 0 -0.44860394795025399 -0.5 0 -0.4490820238307246 -0.45820516232899983 0 -0.44860394795025399 -0.5 0 -0.4490820238307246 -0.45820516232899983 0 -0.42881687682924802 -0.47781464288736519 0 -0.4490820238307246 -0.45820516232899983 0 -0.45555437223955858 -0.42914059360647611 0 -0.4490820238307246 -0.45820516232899983 0 -0.45555437223955858 -0.42914059360647611 0 -0.43867285131603428 -0.4271457417558665 0 -0.4490820238307246 -0.45820516232899983 0 -0.43867285131603428 -0.4271457417558665 0 -0.4263356171060747 -0.44269880333887462 0 -0.47160970827802529 -0.4793630013852106 0 -0.4490820238307246 -0.45820516232899983 0 -0.47620991077874902 -0.44978878706170539 0 -0.4490820238307246 -0.45820516232899983 0 -0.47620991077874902 -0.44978878706170539 0 -0.45555437223955858 -0.42914059360647611 0 -0.47620991077874902 -0.44978878706170539 0 -0.48101336032419229 -0.41069999664450008 0 -0.45555437223955858 -0.42914059360647611 0 -0.47620991077874902 -0.44978878706170539 0 -0.49999999999999473 -0.42132396840504388 0 -0.48101336032419229 -0.41069999664450008 0 -0.49999999999999473 -0.42132396840504388 0 -0.48101336032419229 -0.41069999664450008 0 -0.5 -0.393886241813306 0 -0.49999999999999473 -0.42132396840504388 0 -0.48101336032419229 -0.41069999664450008 0 -0.5 -0.393886241813306 0 -0.47854472220918332 -0.38978458738689759 0 -0.48422759779560409 -0.37130120630367158 0 -0.5 -0.393886241813306 0 -0.5 -0.36644851522156802 0 -0.48422759779560409 -0.37130120630367158 0 -0.48101336032419229 -0.41069999664450008 0 -0.5 -0.393886241813306 0 -0.47854472220918332 -0.38978458738689759 0 -0.48101336032419229 -0.41069999664450008 0 -0.47854472220918332 -0.38978458738689759 0 -0.46202672064839212 -0.40007602488395211 0 -0.48101336032419229 -0.41069999664450008 0 -0.46202672064839212 -0.40007602488395211 0 -0.47854472220918332 -0.38978458738689759 0 -0.46725442735267431 -0.37660061361585562 0 -0.46202672064839212 -0.40007602488395211 0 -0.47854472220918332 -0.38978458738689759 0 -0.46725442735267431 -0.37660061361585562 0 -0.48422759779560409 -0.37130120630367158 0 -0.46725442735267431 -0.37660061361585562 0 -0.46202672064839212 -0.40007602488395211 0 -0.46725442735267431 -0.37660061361585562 0 -0.45645674801697989 -0.38644133236760531 0 -0.46202672064839212 -0.40007602488395211 0 -0.46725442735267431 -0.37660061361585562 0 -0.45645674801697989 -0.38644133236760531 0 -0.4540003998136638 -0.37455519391687309 0 -0.45645674801697989 -0.38644133236760531 0 -0.46202672064839212 -0.40007602488395211 0 -0.44257020456291563 -0.38918913383950271 0 -0.46202672064839212 -0.40007602488395211 0 -0.44257020456291563 -0.38918913383950271 0 -0.44727608925983742 -0.41095911152778891 0 -0.46202672064839212 -0.40007602488395211 0 -0.44257020456291563 -0.38918913383950271 0 -0.44257020456291563 -0.38918913383950271 0 -0.44727608925983742 -0.41095911152778891 0 -0.43479358559901082 -0.4041454901736512 0 -0.44257020456291563 -0.38918913383950271 0 -0.4540003998136638 -0.37455519391687309 0 -0.44172858264042247 -0.37082207246888088 0 -0.45645674801697989 -0.38644133236760531 0 -0.44257020456291563 -0.38918913383950271 0 -0.4540003998136638 -0.37455519391687309 0 -0.46202672064839212 -0.40007602488395211 0 -0.45555437223955858 -0.42914059360647611 0 -0.44727608925983742 -0.41095911152778891 0 -0.46202672064839212 -0.40007602488395211 0 -0.45555437223955858 -0.42914059360647611 0 -0.48101336032419229 -0.41069999664450008 0 -0.46202672064839212 -0.40007602488395211 0 -0.45555437223955858 -0.42914059360647611 0 -0.44727608925983742 -0.41095911152778891 0 -0.43867285131603428 -0.4271457417558665 0 -0.43676601469929588 -0.41441201227470881 0 -0.44727608925983742 -0.41095911152778891 0 -0.43676601469929588 -0.41441201227470881 0 -0.43479358559901082 -0.4041454901736512 0 -0.45555437223955858 -0.42914059360647611 0 -0.44727608925983742 -0.41095911152778891 0 -0.43867285131603428 -0.4271457417558665 0 -0.43867285131603428 -0.4271457417558665 0 -0.42681803064840879 -0.42717069814352421 0 -0.4263356171060747 -0.44269880333887462 0 -0.42681803064840879 -0.42717069814352421 0 -0.41531815884496182 -0.42985383783075998 0 -0.4263356171060747 -0.44269880333887462 0 -0.42681803064840879 -0.42717069814352421 0 -0.42624289495594048 -0.42089725947505818 0 -0.42083332353326591 -0.42146747131641099 0 -0.42681803064840879 -0.42717069814352421 0 -0.43096994786351572 -0.41951492446283251 0 -0.42624289495594048 -0.42089725947505818 0 -0.43867285131603428 -0.4271457417558665 0 -0.42681803064840879 -0.42717069814352421 0 -0.43096994786351572 -0.41951492446283251 0 -0.43867285131603428 -0.4271457417558665 0 -0.43676601469929588 -0.41441201227470881 0 -0.43096994786351572 -0.41951492446283251 0 -0.43676601469929588 -0.41441201227470881 0 -0.43096994786351572 -0.41951492446283251 0 -0.42907264086257813 -0.41311715872526122 0 -0.43676601469929588 -0.41441201227470881 0 -0.42907264086257813 -0.41311715872526122 0 -0.43479358559901082 -0.4041454901736512 0 -0.42907264086257813 -0.41311715872526122 0 -0.43479358559901082 -0.4041454901736512 0 -0.42460885511582858 -0.40417321677700252 0 -0.42907264086257813 -0.41311715872526122 0 -0.41997834854398469 -0.41180534796019508 0 -0.42907264086257813 -0.41311715872526122 0 -0.42635027777857132 -0.41543594397746519 0 -0.41997834854398469 -0.41180534796019508 0 -0.42907264086257813 -0.41311715872526122 0 -0.41997834854398469 -0.41180534796019508 0 -0.42460885511582858 -0.40417321677700252 0 -0.42635027777857132 -0.41543594397746519 0 -0.41997834854398469 -0.41180534796019508 0 -0.42635027777857132 -0.41543594397746519 0 -0.42083332353326591 -0.42146747131641099 0 -0.41997834854398469 -0.41180534796019508 0 -0.43096994786351572 -0.41951492446283251 0 -0.42624289495594048 -0.42089725947505818 0 -0.42635027777857132 -0.41543594397746519 0 -0.43096994786351572 -0.41951492446283251 0 -0.42907264086257813 -0.41311715872526122 0 -0.42635027777857132 -0.41543594397746519 0 -0.42624289495594048 -0.42089725947505818 0 -0.42635027777857132 -0.41543594397746519 0 -0.42083332353326591 -0.42146747131641099 0 -0.42083332353326591 -0.42146747131641099 0 -0.41997834854398469 -0.41180534796019508 0 -0.40992282953163789 -0.42011435591993562 0 -0.41997834854398469 -0.41180534796019508 0 -0.39756877647335259 -0.40857286797681719 0 -0.41997834854398469 -0.41180534796019508 0 -0.40992282953163789 -0.42011435591993562 0 -0.39756877647335259 -0.40857286797681719 0 -0.40992282953163789 -0.42011435591993562 0 -0.41531815884496182 -0.42985383783075998 0 -0.39591554026262499 -0.42887225451549271 0 -0.41531815884496182 -0.42985383783075998 0 -0.39591554026262499 -0.42887225451549271 0 -0.41160927495564159 -0.44339431233754628 0 -0.42083332353326591 -0.42146747131641099 0 -0.40992282953163789 -0.42011435591993562 0 -0.41531815884496182 -0.42985383783075998 0 -0.42681803064840879 -0.42717069814352421 0 -0.42083332353326591 -0.42146747131641099 0 -0.41531815884496182 -0.42985383783075998 0 -0.44257020456291563 -0.38918913383950271 0 -0.42311368847744002 -0.37830224279505142 0 -0.42594061475171041 -0.39368797999533162 0 -0.44257020456291563 -0.38918913383950271 0 -0.42311368847744002 -0.37830224279505142 0 -0.44172858264042247 -0.37082207246888088 0 -0.44257020456291563 -0.38918913383950271 0 -0.42311368847744002 -0.37830224279505142 0 -0.42311368847744002 -0.37830224279505142 0 -0.42594061475171041 -0.39368797999533162 0 -0.416587075656149 -0.38785930376960043 0 -0.44257020456291563 -0.38918913383950271 0 -0.42594061475171041 -0.39368797999533162 0 -0.43479358559901082 -0.4041454901736512 0 -0.42594061475171041 -0.39368797999533162 0 -0.43479358559901082 -0.4041454901736512 0 -0.42460885511582858 -0.40417321677700252 0 -0.41997834854398469 -0.41180534796019508 0 -0.41325908582185972 -0.39811010703057192 0 -0.39770572831670092 -0.39911486077581648 0 -0.41997834854398469 -0.41180534796019508 0 -0.39770572831670092 -0.39911486077581648 0 -0.42594061475171041 -0.39368797999533162 0 -0.42460885511582858 -0.40417321677700252 0 -0.41325908582185972 -0.39811010703057192 0 -0.41997834854398469 -0.41180534796019508 0 -0.42460885511582858 -0.40417321677700252 0 -0.41325908582185972 -0.39811010703057192 0 -0.42594061475171041 -0.39368797999533162 0 -0.41325908582185972 -0.39811010703057192 0 -0.416587075656149 -0.38785930376960043 0 -0.41325908582185972 -0.39811010703057192 0 -0.416587075656149 -0.38785930376960043 0 -0.40403491357358612 -0.38133688525744702 0 -0.42311368847744002 -0.37830224279505142 0 -0.40403491357358612 -0.38133688525744702 0 -0.40365717239196519 -0.36741535175059892 0 -0.42311368847744002 -0.37830224279505142 0 -0.416587075656149 -0.38785930376960043 0 -0.40403491357358612 -0.38133688525744702 0 -0.40403491357358612 -0.38133688525744702 0 -0.39190790742475001 -0.38540387676521748 0 -0.39770572831670092 -0.39911486077581648 0 -0.40403491357358612 -0.38133688525744702 0 -0.39190790742475001 -0.38540387676521748 0 -0.3904578797192948 -0.37473938743617019 0 -0.41325908582185972 -0.39811010703057192 0 -0.40403491357358612 -0.38133688525744702 0 -0.39770572831670092 -0.39911486077581648 0 -0.39770572831670092 -0.39911486077581648 0 -0.37543310808941849 -0.38642437359143528 0 -0.39770572831670092 -0.39911486077581648 0 -0.37515920440272033 -0.40534038799344108 0 -0.37543310808941849 -0.38642437359143528 0 -0.39770572831670092 -0.39911486077581648 0 -0.37515920440272033 -0.40534038799344108 0 -0.39756877647335259 -0.40857286797681719
[...]
<PointData Scalars="" Vectors="displacement," Tensors="">
<DataArray type="Float64" Name="displacement" NumberOfComponents="3" format="ascii">
-0.034997495320336046 -0.034998035035733129 0 -0.032633029362305624 -0.03438280450571321 0 -0.029503251174115723 -0.034995342204480917 0 -0.034997495320336046 -0.034998035035733129 0 -0.034447732047227148 -0.033730898579141903 0 -0.032633029362305624 -0.03438280450571321 0 -0.034997495320336046 -0.034998035035733129 0 -0.034447732047227148 -0.033730898579141903 0 -0.034998037460203198 -0.031405323282046385 0 -0.034447732047227148 -0.033730898579141903 0 -0.034998037460203198 -0.031405323282046385 0 -0.034668963579964643 -0.033266340213674361 0 -0.034998037460203198 -0.031405323282046385 0 -0.034668963579964643 -0.033266340213674361 0 -0.035117709798494164 -0.030755856758161164 0 -0.033155195999600214 -0.034190501790555231 0 -0.032774370149998629 -0.034238930661759558 0 -0.034668963579964643 -0.033266340213674361 0 -0.037806897285623003 -0.033666325521805936 0 -0.038048938835382337 -0.032072226831731769 0 -0.034668963579964643 -0.033266340213674361 0 -0.038048938835382337 -0.032072226831731769 0 -0.036715025297770883 -0.030871681454614462 0 -0.034447732047227148 -0.033730898579141903 0 -0.034668963579964643 -0.033266340213674361 0 -0.032633029362305624 -0.03438280450571321 0 -0.034668963579964643 -0.033266340213674361 0 -0.032633029362305624 -0.03438280450571321 0 -0.031837511842194945 -0.034998311841818633 0 -0.032633029362305624 -0.03438280450571321 0 -0.030357031617210425 -0.034632740599703199 0 -0.031837511842194945 -0.034998311841818633 0 -0.032633029362305624 -0.03438280450571321 0 -0.029503251174115723 -0.034995342204480917 0 -0.030357031617210425 -0.034632740599703199 0 -0.029492670576173427 -0.034999997003151789 0 -0.028747774645507665 -0.036322133049041541 0 -0.027572039933743103 -0.034999995617536729 0 -0.02949361465044668 -0.034999640323866904 0 -0.029847838229137908 -0.034718130522086367 0 -0.027572039933743103 -0.034999995617536729 0 -0.027286642232176622 -0.036493634750290306 0 -0.02599299597460572 -0.036098282078674777 0 -0.027572039933743103 -0.034999995617536729 0 -0.025651398072619579 -0.034999994907928642 0 -0.02599299597460572 -0.036098282078674777 0 -0.028747774645507665 -0.036322133049041541 0 -0.027572039933743103 -0.034999995617536729 0 -0.027286642232176622 -0.036493634750290306 0 -0.028747774645507665 -0.036322133049041541 0 -0.027286642232176622 -0.036493634750290306 0 -0.028007139170167186 -0.03764118888557233 0 -0.029847838229137908 -0.034718130522086367 0 -0.03043343428222697 -0.033999577611432172 0 -0.027286642232176622 -0.036493634750290306 0 -0.026365711500437299 -0.037279920974933503 0 -0.028007139170167186 -0.03764118888557233 0 -0.027286642232176622 -0.036493634750290306 0 -0.026365711500437299 -0.037279920974933503 0 -0.02599299597460572 -0.036098282078674777 0 -0.027151868560732893 -0.034634741792856374 0 -0.03043343428222697 -0.033999577611432172 0 -0.023793685926147799 -0.036971391555121164 0 -0.023678569270190054 -0.036890221825286132 0 -0.023557816626641359 -0.036941697521672451 0 -0.023793685926147799 -0.036971391555121164 0 -0.023678569270190054 -0.036890221825286132 0 -0.023757658499798245 -0.036885366677357131 0 -0.023678569270190054 -0.036890221825286132 0 -0.023557816626641359 -0.036941697521672451 0 -0.023634463968714298 -0.036763085167226678 0 -0.040134539868782647 -0.033925388888571641 0 -0.040843760712711417 -0.03237538153709843 0 -0.039309206695973348 -0.032802650736768038 0 -0.03043343428222697 -0.033999577611432172 0 -0.030273299691084898 -0.033140011179577773 0 -0.040843760712711417 -0.03237538153709843 0 -0.039309206695973348 -0.032802650736768038 0 -0.03979702414808766 -0.031809638391444142 0 -0.023634463968714298 -0.036763085167226678 0 -0.023757658499798245 -0.036885366677357131 0 -0.02377899615997062 -0.036756215962412762 0 -0.023678569270190054 -0.036890221825286132 0 -0.023634463968714298 -0.036763085167226678 0 -0.023757658499798245 -0.036885366677357131 0 -0.040134539868782647 -0.033925388888571641 0 -0.037806897285623003 -0.033666325521805936 0 -0.039309206695973348 -0.032802650736768038 0 -0.03043343428222697 -0.033999577611432172 0 -0.032774370149998629 -0.034238930661759558 0 -0.030357031617210425 -0.034632740599703199 0 -0.030197075898058468 -0.035164448530276407 0 -0.031837511842194945 -0.034998311841818633 0 -0.039309206695973348 -0.032802650736768038 0 -0.038048938835382337 -0.032072226831731769 0 -0.039055261527357617 -0.031943311114164312 0 -0.039309206695973348 -0.032802650736768038 0 -0.039055261527357617 -0.031943311114164312 0 -0.03979702414808766 -0.031809638391444142 0 -0.037806897285623003 -0.033666325521805936 0 -0.039309206695973348 -0.032802650736768038 0 -0.038048938835382337 -0.032072226831731769 0 -0.038048938835382337 -0.032072226831731769 0 -0.038019069501182258 -0.031032080038635008 0 -0.036715025297770883 -0.030871681454614462 0 -0.038019069501182258 -0.031032080038635008 0 -0.037789442310781768 -0.030068362177755676 0 -0.036715025297770883 -0.030871681454614462 0 -0.038019069501182258 -0.031032080038635008 0 -0.038534076214240619 -0.031020129629212741 0 -0.03848034743948129 -0.030549343853512798 0 -0.038019069501182258 -0.031032080038635008 0 -0.038654031739158781 -0.03144474590914919 0 -0.038534076214240619 -0.031020129629212741 0 -0.038048938835382337 -0.032072226831731769 0 -0.038019069501182258 -0.031032080038635008 0 -0.038654031739158781 -0.03144474590914919 0 -0.038048938835382337 -0.032072226831731769 0 -0.039055261527357617 -0.031943311114164312 0 -0.038654031739158781 -0.03144474590914919 0 -0.039055261527357617 -0.031943311114164312 0 -0.038654031739158781 -0.03144474590914919 0 -0.039189403483126876 -0.0313419663774889 0 -0.039055261527357617 -0.031943311114164312 0 -0.039189403483126876 -0.0313419663774889 0 -0.03979702414808766 -0.031809638391444142 0 -0.039189403483126876 -0.0313419663774889 0 -0.03979702414808766 -0.031809638391444142 0 -0.039787121628720459 -0.03110853720012165 0 -0.036223620730440401 -0.027911032648618789 0 -0.036199598476175869 -0.027758467106778994 0 -0.039189403483126876 -0.0313419663774889 0 -0.038983912673820238 -0.031057287475403435 0 -0.039352326483687486 -0.030416886066797218 0 -0.039189403483126876 -0.0313419663774889 0 -0.039315615297774741 -0.030812608005393937 0 -0.039787121628720459 -0.03110853720012165 0 -0.036208002084262905 -0.027812068661604468 0 -0.036199598476175869 -0.027758467106778994 0 -0.038983912673820238 -0.031057287475403435 0 -0.03848034743948129 -0.030549343853512798 0 -0.039288212946131752 -0.030478728903348434 0 -0.038654031739158781 -0.03144474590914919 0 -0.038534076214240619 -0.031020129629212741 0 -0.038983912673820238 -0.031057287475403435 0 -0.038654031739158781 -0.03144474590914919 0 -0.039189403483126876 -0.0313419663774889 0 -0.038983912673820238 -0.031057287475403435 0 -0.038534076214240619 -0.031020129629212741 0 -0.038983912673820238 -0.031057287475403435 0 -0.03848034743948129 -0.030549343853512798 0 -0.03848034743948129 -0.030549343853512798 0 -0.039288212946131752 -0.030478728903348434 0 -0.0385898431310224 -0.029639885531341847 0 -0.036199598476175869 -0.027758467106778994 0 -0.036461586174640466 -0.02703093417920371 0 -0.039288212946131752 -0.030478728903348434 0 -0.0385898431310224 -0.029639885531341847 0 -0.039521765322778603 -0.02863378664218668 0 -0.0385898431310224 -0.029639885531341847 0 -0.037789442310781768 -0.030068362177755676 0 -0.03788305205242503 -0.028505248701935014 0 -0.037789442310781768 -0.030068362177755676 0 -0.03788305205242503 -0.028505248701935014 0 -0.036725317723158443 -0.029767657237510334 0 -0.03848034743948129 -0.030549343853512798 0 -0.0385898431310224 -0.029639885531341847 0 -0.037789442310781768 -0.030068362177755676 0 -0.038019069501182258 -0.031032080038635008 0 -0.03848034743948129 -0.030549343853512798 0 -0.037789442310781768 -0.030068362177755676 0 -0.040843760712711417 -0.03237538153709843 0 -0.041387263827535055 -0.031030453378990654 0 -0.040464453463389713 -0.031215015756411866 0 -0.023634463968714298 -0.036763085167226678 0 -0.023704285788603056 -0.036548517181585187 0 -0.02377899615997062 -0.036756215962412762 0 -0.030273299691084898 -0.033140011179577773 0 -0.029901335282577261 -0.031872717283740436 0 -0.041387263827535055 -0.031030453378990654 0 -0.040464453463389713 -0.031215015756411866 0 -0.0407896317557166 -0.03062960346146942 0 -0.040843760712711417 -0.03237538153709843 0 -0.040464453463389713 -0.031215015756411866 0 -0.03979702414808766 -0.031809638391444142 0 -0.040464453463389713 -0.031215015756411866 0 -0.03979702414808766 -0.031809638391444142 0 -0.039787121628720459 -0.03110853720012165 0 -0.039315615297774741 -0.030812608005393937 0 -0.040170901011811318 -0.030420532444462425 0 -0.040130040551241572 -0.029515591216547274 0 -0.036199598476175869 -0.027758467106778994 0 -0.035790894087435084 -0.026908593156597691 0 -0.040464453463389713 -0.031215015756411866 0 -0.039787121628720459 -0.03110853720012165 0 -0.040170901011811318 -0.030420532444462425 0 -0.039315615297774741 -0.030812608005393937 0 -0.039787121628720459 -0.03110853720012165 0 -0.040170901011811318 -0.030420532444462425 0 -0.040464453463389713 -0.031215015756411866 0 -0.040170901011811318 -0.030420532444462425 0 -0.0407896317557166 -0.03062960346146942 0 -0.040170901011811318 -0.030420532444462425 0 -0.0407896317557166 -0.03062960346146942 0 -0.041131616406228914 -0.029865669265067975 0 -0.041387263827535055 -0.031030453378990654 0 -0.041131616406228914 -0.029865669265067975 0 -0.041970245060129696 -0.029844543842563038 0 -0.041387263827535055 -0.031030453378990654 0 -0.0407896317557166 -0.03062960346146942 0 -0.041131616406228914 -0.029865669265067975 0 -0.041131616406228914 -0.029865669265067975 0 -0.040880817727716345 -0.029222318743225711 0 -0.040130040551241572 -0.029515591216547274 0 -0.041131616406228914 -0.029865669265067975 0 -0.040880817727716345 -0.029222318743225711 0 -0.041425132906782285 -0.029153280591228823 0 -0.040170901011811318 -0.030420532444462425 0 -0.041131616406228914 -0.029865669265067975 0 -0.040130040551241572 -0.029515591216547274 0 -0.035790894087435084 -0.026908593156597691 0 -0.034826497657477494 -0.025912929581853154 0 -0.036183178049710878 -0.026551482173471849 0 -0.035959431688614728 -0.025741013857352113 0 -0.036636034655386444 -0.025750332235400495 0 -0.036183178049710878 -0.026551482173471849 0 -0.035959431688614728 -0.025741013857352113 0 -0.035844275741253512 -0.026546902657506005 0 -0.036553255065769549 -0.02599578613571386 0 -0.034826497657477494 -0.025912929581853154 0 -0.040825851539685022 -0.028373524648830629 0 -0.041425132906782285 -0.029153280591228823 0 -0.041690352190912994 -0.028408650220688409 0 -0.040880817727716345 -0.029222318743225711 0 -0.040825851539685022 -0.028373524648830629 0 -0.041425132906782285 -0.029153280591228823 0 -0.034826497657477494 -0.025912929581853154 0 -0.032418560532190832 -0.026641463474948491 0 -0.040880817727716345 -0.029222318743225711 0 -0.040130040551241572 -0.029515591216547274 0 -0.040825851539685022 -0.028373524648830629 0 -0.035729820275306926 -0.027353150347681862 0 -0.036183178049710878 -0.026551482173471849 0 -0.035844275741253512 -0.026546902657506005 0 -0.0385898431310224 -0.029639885531341847 0 -0.03788305205242503 -0.028505248701935014 0 -0.039521765322778603 -0.02863378664218668 0 -0.039775279001532014 -0.026831592536409869 0 -0.03788305205242503 -0.028505248701935014 0 -0.039521765322778603 -0.02863378664218668 0 -0.036553255065769549 -0.02599578613571386 0 -0.036461586174640466 -0.02703093417920371 0 -0.039775279001532014 -0.026831592536409869 0 -0.03788305205242503 -0.028505248701935014 0 -0.037355783223463827 -0.026803702380301605 0 -0.03788305205242503 -0.028505248701935014 0 -0.036469291113808186 -0.02827151095144902 0 -0.037355783223463827 -0.026803702380301605 0 -0.036469291113808186 -0.02827151095144902 0 -0.034947704161307477 -0.026770708498728573 0 -0.037355783223463827 -0.026803702380301605 0 -0.03788305205242503 -0.028505248701935014 0 -0.036469291113808186 -0.02827151095144902 0 -0.036725317723158443 -0.029767657237510334 0 -0.036469291113808186 -0.02827151095144902 0 -0.035590261245296531 -0.029149475420015874 0 -0.036725317723158443 -0.029767657237510334 0 -0.036066578794270623 -0.029284574505034251 0 -0.035607288128347452 -0.028157091956601248 0 -0.035593775014233033 -0.029603507124814941 0 -0.037912588541277492 -0.028219000722959475 0 -0.037640553774604665 -0.027213108345023707 0 -0.036469418011966334 -0.027443661873316059 0 -0.036544532002468044 -0.027300102107822695 0 -0.035806113377009167 -0.027057422653733471 0 -0.036544532002468044 -0.027300102107822695 0 -0.036545431129957187 -0.027307596694349325 0 -0.036544532002468044 -0.027300102107822695 0 -0.036586753688817239 -0.026909143392041777 0 -0.036469291113808186 -0.02827151095144902 0 -0.035590261245296531 -0.029149475420015874 0 -0.035269305086158519 -0.027959005030841793 0 -0.036469291113808186 -0.02827151095144902 0 -0.035269305086158519 -0.027959005030841793 0 -0.034947704161307477 -0.026770708498728573 0 -0.036586753688817239 -0.026909143392041777 0 -0.036600624243535218 -0.026326839412147505 0 -0.037640553774604665 -0.027213108345023707 0 -0.036958241722351418 -0.02684908604046711 0 -0.037368442841737591 -0.026200504787058265 0 -0.036958241722351418 -0.02684908604046711 0 -0.036469418011966334 -0.027443661873316059 0 -0.036567966298968614 -0.026185516959359154 0 -0.036469418011966334 -0.027443661873316059 0 -0.035710652491177705 -0.026066991835532311 0 -0.036567966298968614 -0.026185516959359154 0 -0.036958241722351418 -0.02684908604046711 0 -0.036567966298968614 -0.026185516959359154 0 -0.037368442841737591 -0.026200504787058265 0 -0.037640553774604665 -0.027213108345023707 0 -0.036958241722351418 -0.02684908604046711 0 -0.036469418011966334 -0.027443661873316059 0 -0.035001208105336842 -0.026666863734850145 0 -0.035806113377009167 -0.027057422653733471 0 -0.035000002845471084 -0.026666262676444851 0 -0.036469418011966334 -0.027443661873316059 0 -0.035710652491177705 -0.026066991835532311 0 -0.034999887660750809 -0.026667485435541895 0 -0.035607288128347452 -0.028157091956601248 0 -0.034999134170862332 -0.028699050186235583 0 -0.035607288128347452 -0.028157091956601248 0 -0.035593775014233033 -0.029603507124814941 0 -0.034999134170862332 -0.028699050186235583 0 -0.035593775014233033 -0.029603507124814941 0 -0.034999134170862332 -0.028699050186235583 0 -0.035117709798494164 -0.030755856758161164 0 -0.034998037460203198 -0.031405323282046385 0 -0.034999134170862332 -0.028699050186235583 0 -0.035117709798494164 -0.030755856758161164 0 -0.035593775014233033 -0.029603507124814941 0 -0.035117709798494164 -0.030755856758161164 0 -0.035539875778699541 -0.030826251099454877 0 -0.034668963579964643 -0.033266340213674361 0 -0.035117709798494164 -0.030755856758161164 0 -0.035539875778699541 -0.030826251099454877 0 -0.034668963579964643 -0.033266340213674361 0 -0.035539875778699541 -0.030826251099454877 0 -0.036715025297770883 -0.030871681454614462 0 -0.035539875778699541 -0.030826251099454877 0 -0.036715025297770883 -0.030871681454614462 0 -0.036083202098029038 -0.030069512180408681 0 -0.036715025297770883 -0.030871681454614462 0 -0.036725317723158443 -0.029767657237510334 0 -0.036083202098029038 -0.030069512180408681 0 -0.037789442310781768 -0.030068362177755676 0 -0.036715025297770883 -0.030871681454614462 0 -0.036725317723158443 -0.029767657237510334 0 -0.036028113814153481 -0.029287502928522439 0 -0.036725317723158443 -0.029767657237510334 0 -0.036060530944058936 -0.029427052424008768 0 -0.036725317723158443 -0.029767657237510334 0 -0.036060530944058936 -0.029427052424008768 0 -0.036083202098029038 -0.030069512180408681 0 -0.036544532002468044 -0.027300102107822695 0 -0.036624157835560597 -0.027435527599559622 0 -0.035593775014233033 -0.029603507124814941 0 -0.036060530944058936 -0.029427052424008768 0 -0.036083202098029038 -0.030069512180408681 0 -0.036066578794270623 -0.029284574505034251 0 -0.035593775014233033 -0.029603507124814941 0 -0.036060530944058936 -0.029427052424008768 0 -0.035593775014233033 -0.029603507124814941 0 -0.035539875778699541 -0.030826251099454877 0 -0.036083202098029038 -0.030069512180408681 0 -0.014854310070075935 -0.035206381921779606 0 -0.014277019490399072 -0.033201144642767431 0 -0.017665039281700382 -0.037849567395120833 0 -0.017569586490239979 -0.039977980024733746 0 -0.016441098170729997 -0.038361856062648601 0 -0.019249207068305657 -0.038253074673515075 0 -0.017949311944072555 -0.037822906094719146 0 -0.017842055494587655 -0.039288450213283199 0 -0.019249207068305657 -0.038253074673515075 0 -0.019179977448207271 -0.039527429793916297 0 -0.017842055494587655 -0.039288450213283199 0 -0.019249207068305657 -0.038253074673515075 0 -0.02043543571780496 -0.038799775869017526 0 -0.019179977448207271 -0.039527429793916297 0 -0.019249207068305657 -0.038253074673515075 0 -0.018750046588250548 -0.037126404410772765 0 -0.019783213198318546 -0.0369967803346141 0 -0.019249207068305657 -0.038253074673515075 0 -0.018750046588250548 -0.037126404410772765 0 -0.017949311944072555 -0.037822906094719146 0 -0.014854310070075935 -0.035206381921779606 0 -0.015062097884045644 -0.035538210125804166 0 -0.018750046588250548 -0.037126404410772765 0 -0.017949311944072555 -0.037822906094719146 0 -0.017971454018707943 -0.036295846499192576 0 -0.017665039281700382 -0.037849567395120833 0 -0.017971454018707943 -0.036295846499192576 0 -0.016185852869841793 -0.036694281291739156 0 -0.017971454018707943 -0.036295846499192576 0 -0.017968714377093631 -0.034999703130498418 0 -0.019159787062789639 -0.036030805296546259 0 -0.017971454018707943 -0.036295846499192576 0 -0.017968714377093631 -0.034999703130498418 0 -0.016809274513468041 -0.035688782431597454 0 -0.017968714377093631 -0.034999703130498418 0 -0.019159787062789639 -0.036030805296546259 0 -0.019889419736075328 -0.034999966963294382 0 -0.018750046588250548 -0.037126404410772765 0 -0.017971454018707943 -0.036295846499192576 0 -0.019159787062789639 -0.036030805296546259 0 -0.018750046588250548 -0.037126404410772765 0 -0.019159787062789639 -0.036030805296546259 0 -0.019783213198318546 -0.0369967803346141 0 -0.019783213198318546 -0.0369967803346141 0 -0.020405301053118781 -0.035923816354315755 0 -0.020844696883143585 -0.036836704239736909 0 -0.019159787062789639 -0.036030805296546259 0 -0.019783213198318546 -0.0369967803346141 0 -0.020405301053118781 -0.035923816354315755 0 -0.019889419736075328 -0.034999966963294382 0 -0.020405301053118781 -0.035923816354315755 0 -0.021810029891974163 -0.034999947614871928 0 -0.019159787062789639 -0.036030805296546259 0 -0.019889419736075328 -0.034999966963294382 0 -0.020405301053118781 -0.035923816354315755 0 -0.020405301053118781 -0.035923816354315755 0 -0.021810029891974163 -0.034999947614871928 0 -0.021385264440014509 -0.036135899075695491 0 -0.021385264440014509 -0.036135899075695491 0 -0.020844696883143585 -0.036836704239736909 0 -0.021925007610208335 -0.036799408617765574 0 -0.020405301053118781 -0.035923816354315755 0 -0.021385264440014509 -0.036135899075695491 0 -0.020844696883143585 -0.036836704239736909 0 -0.020844696883143585 -0.036836704239736909 0 -0.021373662533478159 -0.037498986463238161 0 -0.021925007610208335 -0.036799408617765574 0 -0.021373662533478159 -0.037498986463238161 0 -0.021158627846831712 -0.038385348481817093 0 -0.021846220226904751 -0.038039396849012863 0 -0.021373662533478159 -0.037498986463238161 0 -0.020454374365398306 -0.037789238412534003 0 -0.021158627846831712 -0.038385348481817093 0 -0.020844696883143585 -0.036836704239736909 0 -0.021373662533478159 -0.037498986463238161 0 -0.020454374365398306 -0.037789238412534003 0 -0.019249207068305657 -0.038253074673515075 0 -0.019783213198318546 -0.0369967803346141 0 -0.020454374365398306 -0.037789238412534003 0 -0.019783213198318546 -0.0369967803346141 0 -0.020844