<?xml version="1.0"?>
<VTKFile type="UnstructuredGrid" version="0.1" byte_order="LittleEndian">
<UnstructuredGrid>
<Piece NumberOfPoints="31898" NumberOfCells="11152">
<Points>
<DataArray type="Float64" NumberOfComponents="3" format="ascii">
-0.5 -0.5 0 -0.47620991077874902 -0.44978878706170539 0 -0.49999999999999473 -0.42132396840504388 0 -0.5 -0.5 0 -0.47160970827802529 -0.4793630013852106 0 -0.47620991077874902 -0.44978878706170539 0 -0.5 -0.5 0 -0.47160970827802529 -0.4793630013852106 0 -0.44860394795025399 -0.5 0 -0.47160970827802529 -0.4793630013852106 0 -0.44860394795025399 -0.5 0 -0.4490820238307246 -0.45820516232899983 0 -0.44860394795025399 -0.5 0 -0.4490820238307246 -0.45820516232899983 0 -0.42881687682924802 -0.47781464288736519 0 -0.4490820238307246 -0.45820516232899983 0 -0.45555437223955858 -0.42914059360647611 0 -0.4490820238307246 -0.45820516232899983 0 -0.45555437223955858 -0.42914059360647611 0 -0.43867285131603428 -0.4271457417558665 0 -0.4490820238307246 -0.45820516232899983 0 -0.43867285131603428 -0.4271457417558665 0 -0.4263356171060747 -0.44269880333887462 0 -0.47160970827802529 -0.4793630013852106 0 -0.4490820238307246 -0.45820516232899983 0 -0.47620991077874902 -0.44978878706170539 0 -0.4490820238307246 -0.45820516232899983 0 -0.47620991077874902 -0.44978878706170539 0 -0.45555437223955858 -0.42914059360647611 0 -0.47620991077874902 -0.44978878706170539 0 -0.48101336032419229 -0.41069999664450008 0 -0.45555437223955858 -0.42914059360647611 0 -0.47620991077874902 -0.44978878706170539 0 -0.49999999999999473 -0.42132396840504388 0 -0.48101336032419229 -0.41069999664450008 0 -0.49999999999999473 -0.42132396840504388 0 -0.48101336032419229 -0.41069999664450008 0 -0.5 -0.393886241813306 0 -0.49999999999999473 -0.42132396840504388 0 -0.48101336032419229 -0.41069999664450008 0 -0.5 -0.393886241813306 0 -0.47854472220918332 -0.38978458738689759 0 -0.48422759779560409 -0.37130120630367158 0 -0.5 -0.393886241813306 0 -0.5 -0.36644851522156802 0 -0.48422759779560409 -0.37130120630367158 0 -0.48101336032419229 -0.41069999664450008 0 -0.5 -0.393886241813306 0 -0.47854472220918332 -0.38978458738689759 0 -0.48101336032419229 -0.41069999664450008 0 -0.47854472220918332 -0.38978458738689759 0 -0.46202672064839212 -0.40007602488395211 0 -0.48101336032419229 -0.41069999664450008 0 -0.46202672064839212 -0.40007602488395211 0 -0.47854472220918332 -0.38978458738689759 0 -0.46725442735267431 -0.37660061361585562 0 -0.46202672064839212 -0.40007602488395211 0 -0.47854472220918332 -0.38978458738689759 0 -0.46725442735267431 -0.37660061361585562 0 -0.48422759779560409 -0.37130120630367158 0 -0.46725442735267431 -0.37660061361585562 0 -0.46202672064839212 -0.40007602488395211 0 -0.46725442735267431 -0.37660061361585562 0 -0.45645674801697989 -0.38644133236760531 0 -0.46202672064839212 -0.40007602488395211 0 -0.46725442735267431 -0.37660061361585562 0 -0.45645674801697989 -0.38644133236760531 0 -0.4540003998136638 -0.37455519391687309 0 -0.45645674801697989 -0.38644133236760531 0 -0.46202672064839212 -0.40007602488395211 0 -0.44257020456291563 -0.38918913383950271 0 -0.46202672064839212 -0.40007602488395211 0 -0.44257020456291563 -0.38918913383950271 0 -0.44727608925983742 -0.41095911152778891 0 -0.46202672064839212 -0.40007602488395211 0 -0.44257020456291563 -0.38918913383950271 0 -0.44257020456291563 -0.38918913383950271 0 -0.44727608925983742 -0.41095911152778891 0 -0.43479358559901082 -0.4041454901736512 0 -0.44257020456291563 -0.38918913383950271 0 -0.4540003998136638 -0.37455519391687309 0 -0.44172858264042247 -0.37082207246888088 0 -0.45645674801697989 -0.38644133236760531 0 -0.44257020456291563 -0.38918913383950271 0 -0.4540003998136638 -0.37455519391687309 0 -0.46202672064839212 -0.40007602488395211 0 -0.45555437223955858 -0.42914059360647611 0 -0.44727608925983742 -0.41095911152778891 0 -0.46202672064839212 -0.40007602488395211 0 -0.45555437223955858 -0.42914059360647611 0 -0.48101336032419229 -0.41069999664450008 0 -0.46202672064839212 -0.40007602488395211 0 -0.45555437223955858 -0.42914059360647611 0 -0.44727608925983742 -0.41095911152778891 0 -0.43867285131603428 -0.4271457417558665 0 -0.43676601469929588 -0.41441201227470881 0 -0.44727608925983742 -0.41095911152778891 0 -0.43676601469929588 -0.41441201227470881 0 -0.43479358559901082 -0.4041454901736512 0 -0.45555437223955858 -0.42914059360647611 0 -0.44727608925983742 -0.41095911152778891 0 -0.43867285131603428 -0.4271457417558665 0 -0.43867285131603428 -0.4271457417558665 0 -0.42681803064840879 -0.42717069814352421 0 -0.4263356171060747 -0.44269880333887462 0 -0.42681803064840879 -0.42717069814352421 0 -0.41531815884496182 -0.42985383783075998 0 -0.4263356171060747 -0.44269880333887462 0 -0.42681803064840879 -0.42717069814352421 0 -0.42624289495594048 -0.42089725947505818 0 -0.42083332353326591 -0.42146747131641099 0 -0.42681803064840879 -0.42717069814352421 0 -0.43096994786351572 -0.41951492446283251 0 -0.42624289495594048 -0.42089725947505818 0 -0.43867285131603428 -0.4271457417558665 0 -0.42681803064840879 -0.42717069814352421 0 -0.43096994786351572 -0.41951492446283251 0 -0.43867285131603428 -0.4271457417558665 0 -0.43676601469929588 -0.41441201227470881 0 -0.43096994786351572 -0.41951492446283251 0 -0.43676601469929588 -0.41441201227470881 0 -0.43096994786351572 -0.41951492446283251 0 -0.42907264086257813 -0.41311715872526122 0 -0.43676601469929588 -0.41441201227470881 0 -0.42907264086257813 -0.41311715872526122 0 -0.43479358559901082 -0.4041454901736512 0 -0.42907264086257813 -0.41311715872526122 0 -0.43479358559901082 -0.4041454901736512 0 -0.42460885511582858 -0.40417321677700252 0 -0.42907264086257813 -0.41311715872526122 0 -0.41997834854398469 -0.41180534796019508 0 -0.42907264086257813 -0.41311715872526122 0 -0.42635027777857132 -0.41543594397746519 0 -0.41997834854398469 -0.41180534796019508 0 -0.42907264086257813 -0.41311715872526122 0 -0.41997834854398469 -0.41180534796019508 0 -0.42460885511582858 -0.40417321677700252 0 -0.42635027777857132 -0.41543594397746519 0 -0.41997834854398469 -0.41180534796019508 0 -0.42635027777857132 -0.41543594397746519 0 -0.42083332353326591 -0.42146747131641099 0 -0.41997834854398469 -0.41180534796019508 0 -0.43096994786351572 -0.41951492446283251 0 -0.42624289495594048 -0.42089725947505818 0 -0.42635027777857132 -0.41543594397746519 0 -0.43096994786351572 -0.41951492446283251 0 -0.42907264086257813 -0.41311715872526122 0 -0.42635027777857132 -0.41543594397746519 0 -0.42624289495594048 -0.42089725947505818 0 -0.42635027777857132 -0.41543594397746519 0 -0.42083332353326591 -0.42146747131641099 0 -0.42083332353326591 -0.42146747131641099 0 -0.41997834854398469 -0.41180534796019508 0 -0.40992282953163789 -0.42011435591993562 0 -0.41997834854398469 -0.41180534796019508 0 -0.39756877647335259 -0.40857286797681719 0 -0.41997834854398469 -0.41180534796019508 0 -0.40992282953163789 -0.42011435591993562 0 -0.39756877647335259 -0.40857286797681719 0 -0.40992282953163789 -0.42011435591993562 0 -0.41531815884496182 -0.42985383783075998 0 -0.39591554026262499 -0.42887225451549271 0 -0.41531815884496182 -0.42985383783075998 0 -0.39591554026262499 -0.42887225451549271 0 -0.41160927495564159 -0.44339431233754628 0 -0.42083332353326591 -0.42146747131641099 0 -0.40992282953163789 -0.42011435591993562 0 -0.41531815884496182 -0.42985383783075998 0 -0.42681803064840879 -0.42717069814352421 0 -0.42083332353326591 -0.42146747131641099 0 -0.41531815884496182 -0.42985383783075998 0 -0.44257020456291563 -0.38918913383950271 0 -0.42311368847744002 -0.37830224279505142 0 -0.42594061475171041 -0.39368797999533162 0 -0.44257020456291563 -0.38918913383950271 0 -0.42311368847744002 -0.37830224279505142 0 -0.44172858264042247 -0.37082207246888088 0 -0.44257020456291563 -0.38918913383950271 0 -0.42311368847744002 -0.37830224279505142 0 -0.42311368847744002 -0.37830224279505142 0 -0.42594061475171041 -0.39368797999533162 0 -0.416587075656149 -0.38785930376960043 0 -0.44257020456291563 -0.38918913383950271 0 -0.42594061475171041 -0.39368797999533162 0 -0.43479358559901082 -0.4041454901736512 0 -0.42594061475171041 -0.39368797999533162 0 -0.43479358559901082 -0.4041454901736512 0 -0.42460885511582858 -0.40417321677700252 0 -0.41997834854398469 -0.41180534796019508 0 -0.41325908582185972 -0.39811010703057192 0 -0.39770572831670092 -0.39911486077581648 0 -0.41997834854398469 -0.41180534796019508 0 -0.39770572831670092 -0.39911486077581648 0 -0.42594061475171041 -0.39368797999533162 0 -0.42460885511582858 -0.40417321677700252 0 -0.41325908582185972 -0.39811010703057192 0 -0.41997834854398469 -0.41180534796019508 0 -0.42460885511582858 -0.40417321677700252 0 -0.41325908582185972 -0.39811010703057192 0 -0.42594061475171041 -0.39368797999533162 0 -0.41325908582185972 -0.39811010703057192 0 -0.416587075656149 -0.38785930376960043 0 -0.41325908582185972 -0.39811010703057192 0 -0.416587075656149 -0.38785930376960043 0 -0.40403491357358612 -0.38133688525744702 0 -0.42311368847744002 -0.37830224279505142 0 -0.40403491357358612 -0.38133688525744702 0 -0.40365717239196519 -0.36741535175059892 0 -0.42311368847744002 -0.37830224279505142 0 -0.416587075656149 -0.38785930376960043 0 -0.40403491357358612 -0.38133688525744702 0 -0.40403491357358612 -0.38133688525744702 0 -0.39190790742475001 -0.38540387676521748 0 -0.39770572831670092 -0.39911486077581648 0 -0.40403491357358612 -0.38133688525744702 0 -0.39190790742475001 -0.38540387676521748 0 -0.3904578797192948 -0.37473938743617019 0 -0.41325908582185972 -0.39811010703057192 0 -0.40403491357358612 -0.38133688525744702 0 -0.39770572831670092 -0.39911486077581648 0 -0.39770572831670092 -0.39911486077581648 0 -0.37543310808941849 -0.38642437359143528 0 -0.39770572831670092 -0.39911486077581648 0 -0.37515920440272033 -0.40534038799344108 0 -0.37543310808941849 -0.38642437359143528 0 -0.39770572831670092 -0.39911486077581648 0 -0.37515920440272033 -0.40534038799344108 0 -0.39756877647335259 -0.40857286797681719
[...]
<PointData Scalars="" Vectors="displacement," Tensors="">
<DataArray type="Float64" Name="displacement" NumberOfComponents="3" format="ascii">
-0.034997127024630217 -2.706352527675258e-07 0 -0.034118081360533785 -0.00018053178265738004 0 -0.034997663516794973 -7.4539036011362827e-07 0 -0.034997127024630217 -2.706352527675258e-07 0 -0.033472431194780869 -0.0001210886811479017 0 -0.034118081360533785 -0.00018053178265738004 0 -0.034997127024630217 -2.706352527675258e-07 0 -0.033472431194780869 -0.0001210886811479017 0 -0.031404214649034735 -2.7144235828966555e-07 0 -0.033472431194780869 -0.0001210886811479017 0 -0.031404214649034735 -2.7144235828966555e-07 0 -0.032856676827545499 7.0608507365836246e-05 0 -0.031404214649034735 -2.7144235828966555e-07 0 -0.032856676827545499 7.0608507365836246e-05 0 -0.031215507977685832 -6.750167993982557e-05 0 -0.033334298113541633 0.00025034101532882833 0 -0.033429274007644415 0.00025463072760685112 0 -0.032856676827545499 7.0608507365836246e-05 0 -0.032297710618327438 0.00031361193330329071 0 -0.032245908826903841 9.9951413635157449e-05 0 -0.032856676827545499 7.0608507365836246e-05 0 -0.032245908826903841 9.9951413635157449e-05 0 -0.032278761516073673 1.3376798270651006e-05 0 -0.033472431194780869 -0.0001210886811479017 0 -0.032856676827545499 7.0608507365836246e-05 0 -0.034118081360533785 -0.00018053178265738004 0 -0.032856676827545499 7.0608507365836246e-05 0 -0.034118081360533785 -0.00018053178265738004 0 -0.034444832592771223 0.00026407110119721884 0 -0.034118081360533785 -0.00018053178265738004 0 -0.034883905808628955 -3.140732472278352e-05 0 -0.034444832592771223 0.00026407110119721884 0 -0.034118081360533785 -0.00018053178265738004 0 -0.034997663516794973 -7.4539036011362827e-07 0 -0.034883905808628955 -3.140732472278352e-05 0 -0.034999999017661217 1.1238557257662573e-10 0 -0.034998992128782151 -4.2605148336334231e-07 0 -0.034999999029216036 -5.2293280149194187e-10 0 -0.034997820396072271 8.2905236939866976e-07 0 -0.034345607635983794 0.00015056623639608062 0 -0.034999999029216036 -5.2293280149194187e-10 0 -0.034998798724543478 -7.7469627201966397e-07 0 -0.034999533346094291 -1.2149334964364701e-06 0 -0.034999999029216036 -5.2293280149194187e-10 0 -0.034999997441459103 -1.793705772047503e-09 0 -0.034999533346094291 -1.2149334964364701e-06 0 -0.034998992128782151 -4.2605148336334231e-07 0 -0.034999999029216036 -5.2293280149194187e-10 0 -0.034998798724543478 -7.7469627201966397e-07 0 -0.034998992128782151 -4.2605148336334231e-07 0 -0.034998798724543478 -7.7469627201966397e-07 0 -0.034997506505405354 -7.0715097237729379e-07 0 -0.034345607635983794 0.00015056623639608062 0 -0.033564272814448785 0.00025783944353270562 0 -0.034998798724543478 -7.7469627201966397e-07 0 -0.034998481361040147 -9.6633823182028349e-07 0 -0.034997506505405354 -7.0715097237729379e-07 0 -0.034998798724543478 -7.7469627201966397e-07 0 -0.034998481361040147 -9.6633823182028349e-07 0 -0.034999533346094291 -1.2149334964364701e-06 0 -0.034040197611243106 0.00014199315568505009 0 -0.033564272814448785 0.00025783944353270562 0 -0.03339818390129784 0.00015129783045400694 0 -0.033175047952089261 0.00040771517770154522 0 -0.032860870426859076 0.00028003200560575934 0 -0.03339818390129784 0.00015129783045400694 0 -0.033175047952089261 0.00040771517770154522 0 -0.033453172512101004 0.00046826822430669988 0 -0.033175047952089261 0.00040771517770154522 0 -0.032860870426859076 0.00028003200560575934 0 -0.033115226458604589 0.00072830928522507144 0 -0.032022817400761863 0.00036381251445911564 0 -0.031917296798387708 0.0001904109228340661 0 -0.032125798710255768 0.00022138850408918518 0 -0.033564272814448785 0.00025783944353270562 0 -0.032648876672597575 0.00059168032426000147 0 -0.031917296798387708 0.0001904109228340661 0 -0.032125798710255768 0.00022138850408918518 0 -0.032068868365649934 0.0001145466619440115 0 -0.033115226458604589 0.00072830928522507144 0 -0.033453172512101004 0.00046826822430669988 0 -0.03353821291343588 0.00074822429634193008 0 -0.033175047952089261 0.00040771517770154522 0 -0.033115226458604589 0.00072830928522507144 0 -0.033453172512101004 0.00046826822430669988 0 -0.032022817400761863 0.00036381251445911564 0 -0.032297710618327438 0.00031361193330329071 0 -0.032125798710255768 0.00022138850408918518 0 -0.033564272814448785 0.00025783944353270562 0 -0.033429274007644415 0.00025463072760685112 0 -0.034883905808628955 -3.140732472278352e-05 0 -0.035006295477727531 0.00023665578066933081 0 -0.034444832592771223 0.00026407110119721884 0 -0.032125798710255768 0.00022138850408918518 0 -0.032245908826903841 9.9951413635157449e-05 0 -0.032170320283228512 0.00012370624324375165 0 -0.032125798710255768 0.00022138850408918518 0 -0.032170320283228512 0.00012370624324375165 0 -0.032068868365649934 0.0001145466619440115 0 -0.032297710618327438 0.00031361193330329071 0 -0.032125798710255768 0.00022138850408918518 0 -0.032245908826903841 9.9951413635157449e-05 0 -0.032245908826903841 9.9951413635157449e-05 0 -0.032246726062026554 6.9262595655592669e-05 0 -0.032278761516073673 1.3376798270651006e-05 0 -0.032246726062026554 6.9262595655592669e-05 0 -0.032250978718508884 0.00012717110108008845 0 -0.032278761516073673 1.3376798270651006e-05 0 -0.032246726062026554 6.9262595655592669e-05 0 -0.032230104440381858 7.4617500304006415e-05 0 -0.032239590234952958 9.3314877945845074e-05 0 -0.032246726062026554 6.9262595655592669e-05 0 -0.032217762960978794 8.2838308251244214e-05 0 -0.032230104440381858 7.4617500304006415e-05 0 -0.032245908826903841 9.9951413635157449e-05 0 -0.032246726062026554 6.9262595655592669e-05 0 -0.032217762960978794 8.2838308251244214e-05 0 -0.032245908826903841 9.9951413635157449e-05 0 -0.032170320283228512 0.00012370624324375165 0 -0.032217762960978794 8.2838308251244214e-05 0 -0.032170320283228512 0.00012370624324375165 0 -0.032217762960978794 8.2838308251244214e-05 0 -0.032179461512383739 7.1324409027281985e-05 0 -0.032170320283228512 0.00012370624324375165 0 -0.032179461512383739 7.1324409027281985e-05 0 -0.032068868365649934 0.0001145466619440115 0 -0.032179461512383739 7.1324409027281985e-05 0 -0.032068868365649934 0.0001145466619440115 0 -0.03206940855275963 1.1138926580686802e-05 0 -0.027423084870936806 0.0012144666803646394 0 -0.027362669531937975 0.0012478558101292724 0 -0.032179461512383739 7.1324409027281985e-05 0 -0.032214289984387592 6.2197103413533e-05 0 -0.032189102575051878 1.8026689174470862e-05 0 -0.032179461512383739 7.1324409027281985e-05 0 -0.032157256729159374 -4.0439656728116384e-05 0 -0.03206940855275963 1.1138926580686802e-05 0 -0.02742038878724478 0.0012680300962704218 0 -0.027362669531937975 0.0012478558101292724 0 -0.032214289984387592 6.2197103413533e-05 0 -0.032239590234952958 9.3314877945845074e-05 0 -0.032260461035406925 9.88887427025929e-05 0 -0.032217762960978794 8.2838308251244214e-05 0 -0.032230104440381858 7.4617500304006415e-05 0 -0.032214289984387592 6.2197103413533e-05 0 -0.032217762960978794 8.2838308251244214e-05 0 -0.032179461512383739 7.1324409027281985e-05 0 -0.032214289984387592 6.2197103413533e-05 0 -0.032230104440381858 7.4617500304006415e-05 0 -0.032214289984387592 6.2197103413533e-05 0 -0.032239590234952958 9.3314877945845074e-05 0 -0.032239590234952958 9.3314877945845074e-05 0 -0.032260461035406925 9.88887427025929e-05 0 -0.032250271637037461 0.0001386553262282785 0 -0.027362669531937975 0.0012478558101292724 0 -0.026901392641570737 0.0010294974399609937 0 -0.032260461035406925 9.88887427025929e-05 0 -0.032250271637037461 0.0001386553262282785 0 -0.032278998523602574 0.00018416785405224459 0 -0.032250271637037461 0.0001386553262282785 0 -0.032250978718508884 0.00012717110108008845 0 -0.032228660176155964 0.00019488840262844637 0 -0.032250978718508884 0.00012717110108008845 0 -0.032228660176155964 0.00019488840262844637 0 -0.032212638889647753 0.00019946170072669076 0 -0.032239590234952958 9.3314877945845074e-05 0 -0.032250271637037461 0.0001386553262282785 0 -0.032250978718508884 0.00012717110108008845 0 -0.032246726062026554 6.9262595655592669e-05 0 -0.032239590234952958 9.3314877945845074e-05 0 -0.032250978718508884 0.00012717110108008845 0 -0.031917296798387708 0.0001904109228340661 0 -0.031780367995378311 -5.7516745340913411e-06 0 -0.031954154365878243 2.3557311294007103e-05 0 -0.033115226458604589 0.00072830928522507144 0 -0.033366969189497858 0.0011650460550887063 0 -0.03353821291343588 0.00074822429634193008 0 -0.032648876672597575 0.00059168032426000147 0 -0.031806140309305266 0.0010383296592196944 0 -0.031780367995378311 -5.7516745340913411e-06 0 -0.031954154365878243 2.3557311294007103e-05 0 -0.031883749974321675 -7.7815986790013322e-05 0 -0.031917296798387708 0.0001904109228340661 0 -0.031954154365878243 2.3557311294007103e-05 0 -0.032068868365649934 0.0001145466619440115 0 -0.031954154365878243 2.3557311294007103e-05 0 -0.032068868365649934 0.0001145466619440115 0 -0.03206940855275963 1.1138926580686802e-05 0 -0.032157256729159374 -4.0439656728116384e-05 0 -0.031999556715170657 -0.00011532728534465757 0 -0.032009344099256161 -0.00029328274547507378 0 -0.027362669531937975 0.0012478558101292724 0 -0.027040322499262377 0.0013816732383976219 0 -0.031954154365878243 2.3557311294007103e-05 0 -0.03206940855275963 1.1138926580686802e-05 0 -0.031999556715170657 -0.00011532728534465757 0 -0.032157256729159374 -4.0439656728116384e-05 0 -0.03206940855275963 1.1138926580686802e-05 0 -0.031999556715170657 -0.00011532728534465757 0 -0.031954154365878243 2.3557311294007103e-05 0 -0.031999556715170657 -0.00011532728534465757 0 -0.031883749974321675 -7.7815986790013322e-05 0 -0.031999556715170657 -0.00011532728534465757 0 -0.031883749974321675 -7.7815986790013322e-05 0 -0.031801148816220794 -0.00021534978993637045 0 -0.031780367995378311 -5.7516745340913411e-06 0 -0.031801148816220794 -0.00021534978993637045 0 -0.031650231558016051 -0.00021780168774106256 0 -0.031780367995378311 -5.7516745340913411e-06 0 -0.031883749974321675 -7.7815986790013322e-05 0 -0.031801148816220794 -0.00021534978993637045 0 -0.031801148816220794 -0.00021534978993637045 0 -0.031842978897662792 -0.00036625865722783357 0 -0.032009344099256161 -0.00029328274547507378 0 -0.031801148816220794 -0.00021534978993637045 0 -0.031842978897662792 -0.00036625865722783357 0 -0.03170756503874584 -0.00038511771331419507 0 -0.031999556715170657 -0.00011532728534465757 0 -0.031801148816220794 -0.00021534978993637045 0 -0.032009344099256161 -0.00029328274547507378 0 -0.027040322499262377 0.0013816732383976219 0 -0.026122584453009488 0.0015078541495343921 0 -0.026583320827572896 0.0012202953278879324 0 -0.026628576026158986 0.001052989158484965 0 -0.026488500541338451 0.0010552351559345989 0 -0.026583320827572896 0.0012202953278879324 0 -0.026628576026158986 0.001052989158484965 0 -0.026653539736806696 0.0012192232214037889 0 -0.026015202658184543 0.00084440582449756484 0 -0.026122584453009488 0.0015078541495343921 0 -0.031851816426443684 -0.00057365264797496493 0 -0.03170756503874584 -0.00038511771331419507 0 -0.031631623310133146 -0.00057448879123269108 0 -0.031842978897662792 -0.00036625865722783357 0 -0.031851816426443684 -0.00057365264797496493 0 -0.03170756503874584 -0.00038511771331419507 0 -0.026122584453009488 0.0015078541495343921 0 -0.027640885690614729 0.0015122062890763541 0 -0.031842978897662792 -0.00036625865722783357 0 -0.032009344099256161 -0.00029328274547507378 0 -0.031851816426443684 -0.00057365264797496493 0 -0.026678802222355885 0.0013856627046837659 0 -0.026583320827572896 0.0012202953278879324 0 -0.026653539736806696 0.0012192232214037889 0 -0.032250271637037461 0.0001386553262282785 0 -0.032228660176155964 0.00019488840262844637 0 -0.032278998523602574 0.00018416785405224459 0 -0.032276229875296873 0.00024196718245039298 0 -0.032228660176155964 0.00019488840262844637 0 -0.032278998523602574 0.00018416785405224459 0 -0.026015202658184543 0.00084440582449756484 0 -0.026901392641570737 0.0010294974399609937 0 -0.032276229875296873 0.00024196718245039298 0 -0.032228660176155964 0.00019488840262844637 0 -0.032211391338333589 0.0002423720149655756 0 -0.032228660176155964 0.00019488840262844637 0 -0.032198089995590477 0.00020962797695181384 0 -0.032211391338333589 0.0002423720149655756 0 -0.032198089995590477 0.00020962797695181384 0 -0.032156355421375876 0.00024536924610067082 0 -0.032211391338333589 0.0002423720149655756 0 -0.032228660176155964 0.00019488840262844637 0 -0.032198089995590477 0.00020962797695181384 0 -0.032212638889647753 0.00019946170072669076 0 -0.032198089995590477 0.00020962797695181384 0 -0.032183429714906939 0.00019915518874180158 0 -0.032212638889647753 0.00019946170072669076 0 -0.031706126404911453 0.00063693150508948768 0 -0.029709962085220247 0.00074259445647612281 0 -0.031078969488606056 0.00022132867985756276 0 -0.023699378179294895 0.0017197584872892622 0 -0.023924172827242331 0.000878240033232377 0 -0.024908088008384236 0.0010767553465023485 0 -0.027837565413817288 -0.00057296333328198351 0 -0.027314259433912271 -0.00022559228194916225 0 -0.027837565413817288 -0.00057296333328198351 0 -0.027841881855106485 -0.00057210235581364873 0 -0.027837565413817288 -0.00057296333328198351 0 -0.027378193150283614 0.00013051890370235363 0 -0.032198089995590477 0.00020962797695181384 0 -0.032183429714906939 0.00019915518874180158 0 -0.032168925619793801 0.00021798408275929302 0 -0.032198089995590477 0.00020962797695181384 0 -0.032168925619793801 0.00021798408275929302 0 -0.032156355421375876 0.00024536924610067082 0 -0.027378193150283614 0.00013051890370235363 0 -0.026883015735613709 0.00075050663624158845 0 -0.023924172827242331 0.000878240033232377 0 -0.024496249495809915 0.000571637296313086 0 -0.024150549051622745 2.3828891583090901e-05 0 -0.024496249495809915 0.000571637296313086 0 -0.024908088008384236 0.0010767553465023485 0 -0.024824394903537005 8.010043783314896e-06 0 -0.024908088008384236 0.0010767553465023485 0 -0.025526840686675389 -0.00012740456459104556 0 -0.024824394903537005 8.010043783314896e-06 0 -0.024496249495809915 0.000571637296313086 0 -0.024824394903537005 8.010043783314896e-06 0 -0.024150549051622745 2.3828891583090901e-05 0 -0.023924172827242331 0.000878240033232377 0 -0.024496249495809915 0.000571637296313086 0 -0.024908088008384236 0.0010767553465023485 0 -0.026667843945942116 -3.0978566826891552e-07 0 -0.027314259433912271 -0.00022559228194916225 0 -0.026663353783970448 1.8212362013625578e-06 0 -0.024908088008384236 0.0010767553465023485 0 -0.025526840686675389 -0.00012740456459104556 0 -0.026669740628157058 2.8390454081522675e-06 0 -0.029709962085220247 0.00074259445647612281 0 -0.028698740846347694 -4.9568396189325979e-07 0 -0.029709962085220247 0.00074259445647612281 0 -0.031078969488606056 0.00022132867985756276 0 -0.028698740846347694 -4.9568396189325979e-07 0 -0.031078969488606056 0.00022132867985756276 0 -0.028698740846347694 -4.9568396189325979e-07 0 -0.031215507977685832 -6.750167993982557e-05 0 -0.031404214649034735 -2.7144235828966555e-07 0 -0.028698740846347694 -4.9568396189325979e-07 0 -0.031215507977685832 -6.750167993982557e-05 0 -0.031078969488606056 0.00022132867985756276 0 -0.031215507977685832 -6.750167993982557e-05 0 -0.031953539447462029 2.7175592790049293e-05 0 -0.032856676827545499 7.0608507365836246e-05 0 -0.031215507977685832 -6.750167993982557e-05 0 -0.031953539447462029 2.7175592790049293e-05 0 -0.032856676827545499 7.0608507365836246e-05 0 -0.031953539447462029 2.7175592790049293e-05 0 -0.032278761516073673 1.3376798270651006e-05 0 -0.031953539447462029 2.7175592790049293e-05 0 -0.032278761516073673 1.3376798270651006e-05 0 -0.031968275216197349 0.00015171461247903931 0 -0.032278761516073673 1.3376798270651006e-05 0 -0.032212638889647753 0.00019946170072669076 0 -0.031968275216197349 0.00015171461247903931 0 -0.032250978718508884 0.00012717110108008845 0 -0.032278761516073673 1.3376798270651006e-05 0 -0.032212638889647753 0.00019946170072669076 0 -0.031746661907454898 0.0006098696810675399 0 -0.032212638889647753 0.00019946170072669076 0 -0.031767472149701333 0.00050477595875869305 0 -0.032212638889647753 0.00019946170072669076 0 -0.031767472149701333 0.00050477595875869305 0 -0.031968275216197349 0.00015171461247903931 0 -0.027837565413817288 -0.00057296333328198351 0 -0.028309161578367072 -0.00070418288003703394 0 -0.031078969488606056 0.00022132867985756276 0 -0.031767472149701333 0.00050477595875869305 0 -0.031968275216197349 0.00015171461247903931 0 -0.031706126404911453 0.00063693150508948768 0 -0.031078969488606056 0.00022132867985756276 0 -0.031767472149701333 0.00050477595875869305 0 -0.031078969488606056 0.00022132867985756276 0 -0.031953539447462029 2.7175592790049293e-05 0 -0.031968275216197349 0.00015171461247903931 0 -0.031336775075766918 0.00098660496719294019 0 -0.030557931812513241 0.001818988780755883 0 -0.03479522315130406 -0.00033002955916454281 0 -0.034840130460874794 -0.0013941799715521874 0 -0.034270888594440226 -0.00053538616759317664 0 -0.034943632432908871 0.00010579933899965378 0 -0.034968653584385646 8.1123059974579274e-05 0 -0.034975850835570116 0.00013920259854673957 0 -0.034943632432908871 0.00010579933899965378 0 -0.034939344534259759 0.00015465392204042333 0 -0.034975850835570116 0.00013920259854673957 0 -0.034943632432908871 0.00010579933899965378 0 -0.034911602525627874 0.00014994606511989226 0 -0.034939344534259759 0.00015465392204042333 0 -0.034943632432908871 0.00010579933899965378 0 -0.034947478193690214 5.6334058298456909e-05 0 -0.03494983391268712 5.2953522109998986e-05 0 -0.034943632432908871 0.00010579933899965378 0 -0.034947478193690214 5.6334058298456909e-05 0 -0.034968653584385646 8.1123059974579274e-05 0 -0.031336775075766918 0.00098660496719294019 0 -0.031589250061318082 0.00080099786911981173 0 -0.034947478193690214 5.6334058298456909e-05 0 -0.034968653584385646 8.1123059974579274e-05 0 -0.034903442799550814 5.0419232514116501e-05 0 -0.03479522315130406 -0.00033002955916454281 0 -0.034903442799550814 5.0419232514116501e-05 0 -0.03433277821191566 3.6825525510856626e-05 0 -0.034903442799550814 5.0419232514116501e-05 0 -0.034999911318895655 1.0563732861436649e-07 0 -0.034963493585101139 3.277043764593515e-05 0 -0.034903442799550814 5.0419232514116501e-05 0 -0.034999911318895655 1.0563732861436649e-07 0 -0.034741857845260279 6.1826454870680565e-05 0 -0.034999911318895655 1.0563732861436649e-07 0 -0.034963493585101139 3.277043764593515e-05 0 -0.034999937461233352 -4.4748839096304856e-09 0 -0.034947478193690214 5.6334058298456909e-05 0 -0.034903442799550814 5.0419232514116501e-05 0 -0.034963493585101139 3.277043764593515e-05 0 -0.034947478193690214 5.6334058298456909e-05 0 -0.034963493585101139 3.277043764593515e-05 0 -0.03494983391268712 5.2953522109998986e-05 0 -0.03494983391268712 5.2953522109998986e-05 0 -0.034966424077305776 9.5883632498430861e-06 0 -0.034934727297853629 4.0629262535579004e-05 0 -0.034963493585101139 3.277043764593515e-05 0 -0.03494983391268712 5.2953522109998986e-05 0 -0.034966424077305776 9.5883632498430861e-06 0 -0.034999937461233352 -4.4748839096304856e-09 0 -0.034966424077305776 9.5883632498430861e-06 0 -0.034999929941001151 9.0150008129831658e-09 0 -0.034963493585101139 3.277043764593515e-05 0 -0.034999937461233352 -4.4748839096304856e-09 0 -0.034966424077305776 9.5883632498430861e-06 0 -0.034966424077305776 9.5883632498430861e-06 0 -0.034999929941001151 9.0150008129831658e-09 0 -0.034949868277237749 -8.9719081533537716e-06 0 -0.034949868277237749 -8.9719081533537716e-06 0 -0.034934727297853629 4.0629262535579004e-05 0 -0.034850425786162854 3.5119719349562576e-05 0 -0.034966424077305776 9.5883632498430861e-06 0 -0.034949868277237749 -8.9719081533537716e-06 0 -0.034934727297853629 4.0629262535579004e-05 0 -0.034934727297853629 4.0629262535579004e-05 0 -0.034875742490993893 9.4288831244383319e-05 0 -0.034850425786162854 3.5119719349562576e-05 0 -0.034875742490993893 9.4288831244383319e-05 0 -0.03487184221954464 0.0001442907245331575 0 -0