<?xml version="1.0"?>
<VTKFile type="UnstructuredGrid" version="0.1" byte_order="LittleEndian">
<UnstructuredGrid>
<Piece NumberOfPoints="31898" NumberOfCells="11152">
<Points>
<DataArray type="Float64" NumberOfComponents="3" format="ascii">
-0.5 -0.5 0 -0.47620991077874902 -0.44978878706170539 0 -0.49999999999999473 -0.42132396840504388 0 -0.5 -0.5 0 -0.47160970827802529 -0.4793630013852106 0 -0.47620991077874902 -0.44978878706170539 0 -0.5 -0.5 0 -0.47160970827802529 -0.4793630013852106 0 -0.44860394795025399 -0.5 0 -0.47160970827802529 -0.4793630013852106 0 -0.44860394795025399 -0.5 0 -0.4490820238307246 -0.45820516232899983 0 -0.44860394795025399 -0.5 0 -0.4490820238307246 -0.45820516232899983 0 -0.42881687682924802 -0.47781464288736519 0 -0.4490820238307246 -0.45820516232899983 0 -0.45555437223955858 -0.42914059360647611 0 -0.4490820238307246 -0.45820516232899983 0 -0.45555437223955858 -0.42914059360647611 0 -0.43867285131603428 -0.4271457417558665 0 -0.4490820238307246 -0.45820516232899983 0 -0.43867285131603428 -0.4271457417558665 0 -0.4263356171060747 -0.44269880333887462 0 -0.47160970827802529 -0.4793630013852106 0 -0.4490820238307246 -0.45820516232899983 0 -0.47620991077874902 -0.44978878706170539 0 -0.4490820238307246 -0.45820516232899983 0 -0.47620991077874902 -0.44978878706170539 0 -0.45555437223955858 -0.42914059360647611 0 -0.47620991077874902 -0.44978878706170539 0 -0.48101336032419229 -0.41069999664450008 0 -0.45555437223955858 -0.42914059360647611 0 -0.47620991077874902 -0.44978878706170539 0 -0.49999999999999473 -0.42132396840504388 0 -0.48101336032419229 -0.41069999664450008 0 -0.49999999999999473 -0.42132396840504388 0 -0.48101336032419229 -0.41069999664450008 0 -0.5 -0.393886241813306 0 -0.49999999999999473 -0.42132396840504388 0 -0.48101336032419229 -0.41069999664450008 0 -0.5 -0.393886241813306 0 -0.47854472220918332 -0.38978458738689759 0 -0.48422759779560409 -0.37130120630367158 0 -0.5 -0.393886241813306 0 -0.5 -0.36644851522156802 0 -0.48422759779560409 -0.37130120630367158 0 -0.48101336032419229 -0.41069999664450008 0 -0.5 -0.393886241813306 0 -0.47854472220918332 -0.38978458738689759 0 -0.48101336032419229 -0.41069999664450008 0 -0.47854472220918332 -0.38978458738689759 0 -0.46202672064839212 -0.40007602488395211 0 -0.48101336032419229 -0.41069999664450008 0 -0.46202672064839212 -0.40007602488395211 0 -0.47854472220918332 -0.38978458738689759 0 -0.46725442735267431 -0.37660061361585562 0 -0.46202672064839212 -0.40007602488395211 0 -0.47854472220918332 -0.38978458738689759 0 -0.46725442735267431 -0.37660061361585562 0 -0.48422759779560409 -0.37130120630367158 0 -0.46725442735267431 -0.37660061361585562 0 -0.46202672064839212 -0.40007602488395211 0 -0.46725442735267431 -0.37660061361585562 0 -0.45645674801697989 -0.38644133236760531 0 -0.46202672064839212 -0.40007602488395211 0 -0.46725442735267431 -0.37660061361585562 0 -0.45645674801697989 -0.38644133236760531 0 -0.4540003998136638 -0.37455519391687309 0 -0.45645674801697989 -0.38644133236760531 0 -0.46202672064839212 -0.40007602488395211 0 -0.44257020456291563 -0.38918913383950271 0 -0.46202672064839212 -0.40007602488395211 0 -0.44257020456291563 -0.38918913383950271 0 -0.44727608925983742 -0.41095911152778891 0 -0.46202672064839212 -0.40007602488395211 0 -0.44257020456291563 -0.38918913383950271 0 -0.44257020456291563 -0.38918913383950271 0 -0.44727608925983742 -0.41095911152778891 0 -0.43479358559901082 -0.4041454901736512 0 -0.44257020456291563 -0.38918913383950271 0 -0.4540003998136638 -0.37455519391687309 0 -0.44172858264042247 -0.37082207246888088 0 -0.45645674801697989 -0.38644133236760531 0 -0.44257020456291563 -0.38918913383950271 0 -0.4540003998136638 -0.37455519391687309 0 -0.46202672064839212 -0.40007602488395211 0 -0.45555437223955858 -0.42914059360647611 0 -0.44727608925983742 -0.41095911152778891 0 -0.46202672064839212 -0.40007602488395211 0 -0.45555437223955858 -0.42914059360647611 0 -0.48101336032419229 -0.41069999664450008 0 -0.46202672064839212 -0.40007602488395211 0 -0.45555437223955858 -0.42914059360647611 0 -0.44727608925983742 -0.41095911152778891 0 -0.43867285131603428 -0.4271457417558665 0 -0.43676601469929588 -0.41441201227470881 0 -0.44727608925983742 -0.41095911152778891 0 -0.43676601469929588 -0.41441201227470881 0 -0.43479358559901082 -0.4041454901736512 0 -0.45555437223955858 -0.42914059360647611 0 -0.44727608925983742 -0.41095911152778891 0 -0.43867285131603428 -0.4271457417558665 0 -0.43867285131603428 -0.4271457417558665 0 -0.42681803064840879 -0.42717069814352421 0 -0.4263356171060747 -0.44269880333887462 0 -0.42681803064840879 -0.42717069814352421 0 -0.41531815884496182 -0.42985383783075998 0 -0.4263356171060747 -0.44269880333887462 0 -0.42681803064840879 -0.42717069814352421 0 -0.42624289495594048 -0.42089725947505818 0 -0.42083332353326591 -0.42146747131641099 0 -0.42681803064840879 -0.42717069814352421 0 -0.43096994786351572 -0.41951492446283251 0 -0.42624289495594048 -0.42089725947505818 0 -0.43867285131603428 -0.4271457417558665 0 -0.42681803064840879 -0.42717069814352421 0 -0.43096994786351572 -0.41951492446283251 0 -0.43867285131603428 -0.4271457417558665 0 -0.43676601469929588 -0.41441201227470881 0 -0.43096994786351572 -0.41951492446283251 0 -0.43676601469929588 -0.41441201227470881 0 -0.43096994786351572 -0.41951492446283251 0 -0.42907264086257813 -0.41311715872526122 0 -0.43676601469929588 -0.41441201227470881 0 -0.42907264086257813 -0.41311715872526122 0 -0.43479358559901082 -0.4041454901736512 0 -0.42907264086257813 -0.41311715872526122 0 -0.43479358559901082 -0.4041454901736512 0 -0.42460885511582858 -0.40417321677700252 0 -0.42907264086257813 -0.41311715872526122 0 -0.41997834854398469 -0.41180534796019508 0 -0.42907264086257813 -0.41311715872526122 0 -0.42635027777857132 -0.41543594397746519 0 -0.41997834854398469 -0.41180534796019508 0 -0.42907264086257813 -0.41311715872526122 0 -0.41997834854398469 -0.41180534796019508 0 -0.42460885511582858 -0.40417321677700252 0 -0.42635027777857132 -0.41543594397746519 0 -0.41997834854398469 -0.41180534796019508 0 -0.42635027777857132 -0.41543594397746519 0 -0.42083332353326591 -0.42146747131641099 0 -0.41997834854398469 -0.41180534796019508 0 -0.43096994786351572 -0.41951492446283251 0 -0.42624289495594048 -0.42089725947505818 0 -0.42635027777857132 -0.41543594397746519 0 -0.43096994786351572 -0.41951492446283251 0 -0.42907264086257813 -0.41311715872526122 0 -0.42635027777857132 -0.41543594397746519 0 -0.42624289495594048 -0.42089725947505818 0 -0.42635027777857132 -0.41543594397746519 0 -0.42083332353326591 -0.42146747131641099 0 -0.42083332353326591 -0.42146747131641099 0 -0.41997834854398469 -0.41180534796019508 0 -0.40992282953163789 -0.42011435591993562 0 -0.41997834854398469 -0.41180534796019508 0 -0.39756877647335259 -0.40857286797681719 0 -0.41997834854398469 -0.41180534796019508 0 -0.40992282953163789 -0.42011435591993562 0 -0.39756877647335259 -0.40857286797681719 0 -0.40992282953163789 -0.42011435591993562 0 -0.41531815884496182 -0.42985383783075998 0 -0.39591554026262499 -0.42887225451549271 0 -0.41531815884496182 -0.42985383783075998 0 -0.39591554026262499 -0.42887225451549271 0 -0.41160927495564159 -0.44339431233754628 0 -0.42083332353326591 -0.42146747131641099 0 -0.40992282953163789 -0.42011435591993562 0 -0.41531815884496182 -0.42985383783075998 0 -0.42681803064840879 -0.42717069814352421 0 -0.42083332353326591 -0.42146747131641099 0 -0.41531815884496182 -0.42985383783075998 0 -0.44257020456291563 -0.38918913383950271 0 -0.42311368847744002 -0.37830224279505142 0 -0.42594061475171041 -0.39368797999533162 0 -0.44257020456291563 -0.38918913383950271 0 -0.42311368847744002 -0.37830224279505142 0 -0.44172858264042247 -0.37082207246888088 0 -0.44257020456291563 -0.38918913383950271 0 -0.42311368847744002 -0.37830224279505142 0 -0.42311368847744002 -0.37830224279505142 0 -0.42594061475171041 -0.39368797999533162 0 -0.416587075656149 -0.38785930376960043 0 -0.44257020456291563 -0.38918913383950271 0 -0.42594061475171041 -0.39368797999533162 0 -0.43479358559901082 -0.4041454901736512 0 -0.42594061475171041 -0.39368797999533162 0 -0.43479358559901082 -0.4041454901736512 0 -0.42460885511582858 -0.40417321677700252 0 -0.41997834854398469 -0.41180534796019508 0 -0.41325908582185972 -0.39811010703057192 0 -0.39770572831670092 -0.39911486077581648 0 -0.41997834854398469 -0.41180534796019508 0 -0.39770572831670092 -0.39911486077581648 0 -0.42594061475171041 -0.39368797999533162 0 -0.42460885511582858 -0.40417321677700252 0 -0.41325908582185972 -0.39811010703057192 0 -0.41997834854398469 -0.41180534796019508 0 -0.42460885511582858 -0.40417321677700252 0 -0.41325908582185972 -0.39811010703057192 0 -0.42594061475171041 -0.39368797999533162 0 -0.41325908582185972 -0.39811010703057192 0 -0.416587075656149 -0.38785930376960043 0 -0.41325908582185972 -0.39811010703057192 0 -0.416587075656149 -0.38785930376960043 0 -0.40403491357358612 -0.38133688525744702 0 -0.42311368847744002 -0.37830224279505142 0 -0.40403491357358612 -0.38133688525744702 0 -0.40365717239196519 -0.36741535175059892 0 -0.42311368847744002 -0.37830224279505142 0 -0.416587075656149 -0.38785930376960043 0 -0.40403491357358612 -0.38133688525744702 0 -0.40403491357358612 -0.38133688525744702 0 -0.39190790742475001 -0.38540387676521748 0 -0.39770572831670092 -0.39911486077581648 0 -0.40403491357358612 -0.38133688525744702 0 -0.39190790742475001 -0.38540387676521748 0 -0.3904578797192948 -0.37473938743617019 0 -0.41325908582185972 -0.39811010703057192 0 -0.40403491357358612 -0.38133688525744702 0 -0.39770572831670092 -0.39911486077581648 0 -0.39770572831670092 -0.39911486077581648 0 -0.37543310808941849 -0.38642437359143528 0 -0.39770572831670092 -0.39911486077581648 0 -0.37515920440272033 -0.40534038799344108 0 -0.37543310808941849 -0.38642437359143528 0 -0.39770572831670092 -0.39911486077581648 0 -0.37515920440272033 -0.40534038799344108 0 -0.39756877647335259 -0.40857286797681719
[...]
<PointData Scalars="" Vectors="displacement," Tensors="">
<DataArray type="Float64" Name="displacement" NumberOfComponents="3" format="ascii">
-1.7040382462883702e-06 -0.034996799221747706 0 -0.00017046379612203251 -0.032724082627265366 0 3.6112731682513898e-06 -0.029500841799719259 0 -1.7040382462883702e-06 -0.034996799221747706 0 -0.000157214986039499 -0.034201980517531712 0 -0.00017046379612203251 -0.032724082627265366 0 -1.7040382462883702e-06 -0.034996799221747706 0 -0.000157214986039499 -0.034201980517531712 0 5.6316537714562421e-09 -0.034999150575064024 0 -0.000157214986039499 -0.034201980517531712 0 5.6316537714562421e-09 -0.034999150575064024 0 -8.6692132756837956e-05 -0.034205513567885676 0 5.6316537714562421e-09 -0.034999150575064024 0 -8.6692132756837956e-05 -0.034205513567885676 0 -6.8181813522931207e-05 -0.034769127602486342 0 -0.00033850428903288454 -0.030199578101198027 0 -3.5753560113263009e-05 -0.029556393913147187 0 -8.6692132756837956e-05 -0.034205513567885676 0 0.00040017328713429153 -0.034171796732188953 0 0.00043235149811991238 -0.034380330928221063 0 -8.6692132756837956e-05 -0.034205513567885676 0 0.00043235149811991238 -0.034380330928221063 0 0.00021301185123140479 -0.034598993836813412 0 -0.000157214986039499 -0.034201980517531712 0 -8.6692132756837956e-05 -0.034205513567885676 0 -0.00017046379612203251 -0.032724082627265366 0 -8.6692132756837956e-05 -0.034205513567885676 0 -0.00017046379612203251 -0.032724082627265366 0 0.00062570294328188544 -0.033384697581332598 0 -0.00017046379612203251 -0.032724082627265366 0 0.0013288404629904556 -0.031628570106174501 0 0.00062570294328188544 -0.033384697581332598 0 -0.00017046379612203251 -0.032724082627265366 0 3.6112731682513898e-06 -0.029500841799719259 0 0.0013288404629904556 -0.031628570106174501 0 1.9807340106002108e-06 -0.029489652477317822 0 0.00030078736638108444 -0.027192998588868998 0 -8.3737739671259281e-07 -0.027572047008225558 0 1.9294186813512006e-06 -0.029490315275747719 0 0.00042179301236778681 -0.028659014564708665 0 -8.3737739671259281e-07 -0.027572047008225558 0 -8.0234413634804811e-05 -0.026488424842688516 0 -0.00016826664618560866 -0.025781596003118103 0 -8.3737739671259281e-07 -0.027572047008225558 0 -2.5605035813665187e-07 -0.02565117375073488 0 -0.00016826664618560866 -0.025781596003118103 0 0.00030078736638108444 -0.027192998588868998 0 -8.3737739671259281e-07 -0.027572047008225558 0 -8.0234413634804811e-05 -0.026488424842688516 0 0.00030078736638108444 -0.027192998588868998 0 -8.0234413634804811e-05 -0.026488424842688516 0 0.00013101831019046449 -0.02622891188428849 0 0.00042179301236778681 -0.028659014564708665 0 0.00070324369762938329 -0.027543843919785906 0 -8.0234413634804811e-05 -0.026488424842688516 0 -0.00020743250821948442 -0.026003705132451191 0 0.00013101831019046449 -0.02622891188428849 0 -8.0234413634804811e-05 -0.026488424842688516 0 -0.00020743250821948442 -0.026003705132451191 0 -0.00016826664618560866 -0.025781596003118103 0 0.00059224090671366428 -0.02595228889898506 0 0.00070324369762938329 -0.027543843919785906 0 0.0011777514016894986 -0.020327480674706244 0 0.00104305877005592 -0.02045702663111092 0 0.0008725788628747307 -0.02039327350135503 0 0.0011777514016894986 -0.020327480674706244 0 0.00104305877005592 -0.02045702663111092 0 0.0011783235275127884 -0.020476239984164837 0 0.00104305877005592 -0.02045702663111092 0 0.0008725788628747307 -0.02039327350135503 0 0.0010023239800452072 -0.020626786255753982 0 0.00061110149236091632 -0.034224213699975782 0 0.00058208954079382426 -0.034344145616191271 0 0.00056050088323092082 -0.034297904959658655 0 0.00070324369762938329 -0.027543843919785906 0 0.00085963418225929312 -0.027078726492772803 0 0.00058208954079382426 -0.034344145616191271 0 0.00056050088323092082 -0.034297904959658655 0 0.00058568145478533505 -0.034358041790265172 0 0.0010023239800452072 -0.020626786255753982 0 0.0011783235275127884 -0.020476239984164837 0 0.0012173422208068244 -0.020630767995827085 0 0.00104305877005592 -0.02045702663111092 0 0.0010023239800452072 -0.020626786255753982 0 0.0011783235275127884 -0.020476239984164837 0 0.00061110149236091632 -0.034224213699975782 0 0.00040017328713429153 -0.034171796732188953 0 0.00056050088323092082 -0.034297904959658655 0 0.00070324369762938329 -0.027543843919785906 0 -3.5753560113263009e-05 -0.029556393913147187 0 0.0013288404629904556 -0.031628570106174501 0 0.0020522036935047821 -0.032806467596384815 0 0.00062570294328188544 -0.033384697581332598 0 0.00056050088323092082 -0.034297904959658655 0 0.00043235149811991238 -0.034380330928221063 0 0.00055516330232905698 -0.034372806509602401 0 0.00056050088323092082 -0.034297904959658655 0 0.00055516330232905698 -0.034372806509602401 0 0.00058568145478533505 -0.034358041790265172 0 0.00040017328713429153 -0.034171796732188953 0 0.00056050088323092082 -0.034297904959658655 0 0.00043235149811991238 -0.034380330928221063 0 0.00043235149811991238 -0.034380330928221063 0 0.00041558763814945459 -0.034535910385509384 0 0.00021301185123140479 -0.034598993836813412 0 0.00041558763814945459 -0.034535910385509384 0 0.00037508456077874704 -0.034703896892829711 0 0.00021301185123140479 -0.034598993836813412 0 0.00041558763814945459 -0.034535910385509384 0 0.00049377367169879032 -0.034518928219743589 0 0.00048321523975258226 -0.034607975406203605 0 0.00041558763814945459 -0.034535910385509384 0 0.00051282916841108306 -0.034441512210864111 0 0.00049377367169879032 -0.034518928219743589 0 0.00043235149811991238 -0.034380330928221063 0 0.00041558763814945459 -0.034535910385509384 0 0.00051282916841108306 -0.034441512210864111 0 0.00043235149811991238 -0.034380330928221063 0 0.00055516330232905698 -0.034372806509602401 0 0.00051282916841108306 -0.034441512210864111 0 0.00055516330232905698 -0.034372806509602401 0 0.00051282916841108306 -0.034441512210864111 0 0.00060530460039938513 -0.034410109342849701 0 0.00055516330232905698 -0.034372806509602401 0 0.00060530460039938513 -0.034410109342849701 0 0.00058568145478533505 -0.034358041790265172 0 0.00060530460039938513 -0.034410109342849701 0 0.00058568145478533505 -0.034358041790265172 0 0.00059233175861574951 -0.034325285309878169 0 0.0016113331292326733 -0.032386568375270645 0 0.0016138851381541129 -0.032286449601108179 0 0.00060530460039938513 -0.034410109342849701 0 0.0005650184013445878 -0.034492182475531256 0 0.00066616429629985608 -0.0346559992202315 0 0.00060530460039938513 -0.034410109342849701 0 0.00065499250720553665 -0.034291248519606077 0 0.00059233175861574951 -0.034325285309878169 0 0.0016225573240105436 -0.032335499908335279 0 0.0016138851381541129 -0.032286449601108179 0 0.0005650184013445878 -0.034492182475531256 0 0.00048321523975258226 -0.034607975406203605 0 0.00062269091331036165 -0.034617182315022504 0 0.00051282916841108306 -0.034441512210864111 0 0.00049377367169879032 -0.034518928219743589 0 0.0005650184013445878 -0.034492182475531256 0 0.00051282916841108306 -0.034441512210864111 0 0.00060530460039938513 -0.034410109342849701 0 0.0005650184013445878 -0.034492182475531256 0 0.00049377367169879032 -0.034518928219743589 0 0.0005650184013445878 -0.034492182475531256 0 0.00048321523975258226 -0.034607975406203605 0 0.00048321523975258226 -0.034607975406203605 0 0.00062269091331036165 -0.034617182315022504 0 0.00050107205007464504 -0.034762735128826161 0 0.0016138851381541129 -0.032286449601108179 0 0.0012821689774016472 -0.032023898764938233 0 0.00062269091331036165 -0.034617182315022504 0 0.00050107205007464504 -0.034762735128826161 0 0.00064583565421460836 -0.034919938460272811 0 0.00050107205007464504 -0.034762735128826161 0 0.00037508456077874704 -0.034703896892829711 0 0.00038906688656688585 -0.034943247017668065 0 0.00037508456077874704 -0.034703896892829711 0 0.00038906688656688585 -0.034943247017668065 0 0.0002085955088083336 -0.034773986356795572 0 0.00048321523975258226 -0.034607975406203605 0 0.00050107205007464504 -0.034762735128826161 0 0.00037508456077874704 -0.034703896892829711 0 0.00041558763814945459 -0.034535910385509384 0 0.00048321523975258226 -0.034607975406203605 0 0.00037508456077874704 -0.034703896892829711 0 0.00058208954079382426 -0.034344145616191271 0 0.00042700128439710264 -0.034280308836738771 0 0.00054701451592958071 -0.0343091318070003 0 0.0010023239800452072 -0.020626786255753982 0 0.0011227022508882613 -0.02086993003780142 0 0.0012173422208068244 -0.020630767995827085 0 0.00085963418225929312 -0.027078726492772803 0 0.00096257130584405761 -0.026433099959239512 0 0.00042700128439710264 -0.034280308836738771 0 0.00054701451592958071 -0.0343091318070003 0 0.00049294001413131155 -0.034226928087545447 0 0.00058208954079382426 -0.034344145616191271 0 0.00054701451592958071 -0.0343091318070003 0 0.00058568145478533505 -0.034358041790265172 0 0.00054701451592958071 -0.0343091318070003 0 0.00058568145478533505 -0.034358041790265172 0 0.00059233175861574951 -0.034325285309878169 0 0.00065499250720553665 -0.034291248519606077 0 0.00057227969240472272 -0.034208095790486288 0 0.00060654512478636126 -0.034035755268775093 0 0.0016138851381541129 -0.032286449601108179 0 0.0016225772428013455 -0.03109980309987067 0 0.00054701451592958071 -0.0343091318070003 0 0.00059233175861574951 -0.034325285309878169 0 0.00057227969240472272 -0.034208095790486288 0 0.00065499250720553665 -0.034291248519606077 0 0.00059233175861574951 -0.034325285309878169 0 0.00057227969240472272 -0.034208095790486288 0 0.00054701451592958071 -0.0343091318070003 0 0.00057227969240472272 -0.034208095790486288 0 0.00049294001413131155 -0.034226928087545447 0 0.00057227969240472272 -0.034208095790486288 0 0.00049294001413131155 -0.034226928087545447 0 0.00042150306403724707 -0.03410175239041642 0 0.00042700128439710264 -0.034280308836738771 0 0.00042150306403724707 -0.03410175239041642 0 0.00029629038645693752 -0.034090063761903898 0 0.00042700128439710264 -0.034280308836738771 0 0.00049294001413131155 -0.034226928087545447 0 0.00042150306403724707 -0.03410175239041642 0 0.00042150306403724707 -0.03410175239041642 0 0.00045822263556112081 -0.033948316265440426 0 0.00060654512478636126 -0.034035755268775093 0 0.00042150306403724707 -0.03410175239041642 0 0.00045822263556112081 -0.033948316265440426 0 0.00032330284520663718 -0.033920680208825299 0 0.00057227969240472272 -0.034208095790486288 0 0.00042150306403724707 -0.03410175239041642 0 0.00060654512478636126 -0.034035755268775093 0 0.0016225772428013455 -0.03109980309987067 0 0.00139867803891693 -0.029028454443606747 0 0.0016670958505694609 -0.030925780806133917 0 0.0019006552318009545 -0.030076314726789625 0 0.0011899965940453422 -0.030085001080671234 0 0.0016670958505694609 -0.030925780806133917 0 0.0019006552318009545 -0.030076314726789625 0 0.0020231627057520647 -0.030921243921762747 0 0.00087176640742333362 -0.03112950050581801 0 0.00139867803891693 -0.029028454443606747 0 0.00047649568621985086 -0.033726815241131816 0 0.00032330284520663718 -0.033920680208825299 0 0.00024857259989792199 -0.033716492147534742 0 0.00045822263556112081 -0.033948316265440426 0 0.00047649568621985086 -0.033726815241131816 0 0.00032330284520663718 -0.033920680208825299 0 0.00139867803891693 -0.029028454443606747 0 0.0010974748968495358 -0.027140629911822003 0 0.00045822263556112081 -0.033948316265440426 0 0.00060654512478636126 -0.034035755268775093 0 0.00047649568621985086 -0.033726815241131816 0 0.0021451501050928292 -0.03176810507282303 0 0.0016670958505694609 -0.030925780806133917 0 0.0020231627057520647 -0.030921243921762747 0 0.00050107205007464504 -0.034762735128826161 0 0.00038906688656688585 -0.034943247017668065 0 0.00064583565421460836 -0.034919938460272811 0 0.00068111478002678342 -0.03518945695332653 0 0.00038906688656688585 -0.034943247017668065 0 0.00064583565421460836 -0.034919938460272811 0 0.00087176640742333362 -0.03112950050581801 0 0.0012821689774016472 -0.032023898764938233 0 0.00068111478002678342 -0.03518945695332653 0 0.00038906688656688585 -0.034943247017668065 0 0.00031076183283359809 -0.035194083762900702 0 0.00038906688656688585 -0.034943247017668065 0 0.00017932699665805445 -0.034979625025502233 0 0.00031076183283359809 -0.035194083762900702 0 0.00017932699665805445 -0.034979625025502233 0 -4.0204952253053574e-05 -0.035195075450254874 0 0.00031076183283359809 -0.035194083762900702 0 0.00038906688656688585 -0.034943247017668065 0 0.00017932699665805445 -0.034979625025502233 0 0.0002085955088083336 -0.034773986356795572 0 0.00017932699665805445 -0.034979625025502233 0 5.4405596973797942e-05 -0.034857098940745831 0 0.0002085955088083336 -0.034773986356795572 0 4.8983549109720721e-05 -0.034877758384723304 0 -2.1084968830652328e-05 -0.034954629626631796 0 -2.1474796721353941e-05 -0.034844724305337534 0 1.0762727830108236e-05 -0.034988728519079519 0 8.8021109825275518e-06 -0.034994753685331205 0 2.2794778435170265e-06 -0.034994696845184393 0 7.8395188717981533e-05 -0.034723131240173948 0 1.5352087981248532e-05 -0.034881927519935303 0 7.8395188717981533e-05 -0.034723131240173948 0 7.8263419623933724e-05 -0.034723676000522723 0 7.8395188717981533e-05 -0.034723131240173948 0 0.00011968682316264904 -0.034479281656157094 0 0.00017932699665805445 -0.034979625025502233 0 5.4405596973797942e-05 -0.034857098940745831 0 6.9999262106176256e-06 -0.035024321315658927 0 0.00017932699665805445 -0.034979625025502233 0 6.9999262106176256e-06 -0.035024321315658927 0 -4.0204952253053574e-05 -0.035195075450254874 0 0.00011968682316264904 -0.034479281656157094 0 0.00020284388730386929 -0.034072345335394688 0 8.8021109825275518e-06 -0.034994753685331205 0 4.6613768500371666e-06 -0.034996606692308543 0 6.9490457347219549e-06 -0.034999379264586628 0 4.6613768500371666e-06 -0.034996606692308543 0 2.2794778435170265e-06 -0.034994696845184393 0 1.9963637919431933e-06 -0.034999129317323699 0 2.2794778435170265e-06 -0.034994696845184393 0 8.427785775795499e-07 -0.03499950973507155 0 1.9963637919431933e-06 -0.034999129317323699 0 4.6613768500371666e-06 -0.034996606692308543 0 1.9963637919431933e-06 -0.034999129317323699 0 6.9490457347219549e-06 -0.034999379264586628 0 8.8021109825275518e-06 -0.034994753685331205 0 4.6613768500371666e-06 -0.034996606692308543 0 2.2794778435170265e-06 -0.034994696845184393 0 -6.8833571714719147e-08 -0.034999683068134946 0 1.5352087981248532e-05 -0.034881927519935303 0 -2.1591205351425359e-09 -0.034999994607436927 0 2.2794778435170265e-06 -0.034994696845184393 0 8.427785775795499e-07 -0.03499950973507155 0 5.6725306998337237e-08 -0.034999983765393178 0 -2.1084968830652328e-05 -0.034954629626631796 0 -1.4007499428546383e-07 -0.034999888374839798 0 -2.1084968830652328e-05 -0.034954629626631796 0 -2.1474796721353941e-05 -0.034844724305337534 0 -1.4007499428546383e-07 -0.034999888374839798 0 -2.1474796721353941e-05 -0.034844724305337534 0 -1.4007499428546383e-07 -0.034999888374839798 0 -6.8181813522931207e-05 -0.034769127602486342 0 5.6316537714562421e-09 -0.034999150575064024 0 -1.4007499428546383e-07 -0.034999888374839798 0 -6.8181813522931207e-05 -0.034769127602486342 0 -2.1474796721353941e-05 -0.034844724305337534 0 -6.8181813522931207e-05 -0.034769127602486342 0 3.0153441711066351e-06 -0.03466226978279148 0 -8.6692132756837956e-05 -0.034205513567885676 0 -6.8181813522931207e-05 -0.034769127602486342 0 3.0153441711066351e-06 -0.03466226978279148 0 -8.6692132756837956e-05 -0.034205513567885676 0 3.0153441711066351e-06 -0.03466226978279148 0 0.00021301185123140479 -0.034598993836813412 0 3.0153441711066351e-06 -0.03466226978279148 0 0.00021301185123140479 -0.034598993836813412 0 8.2285523585540432e-05 -0.034750678951589876 0 0.00021301185123140479 -0.034598993836813412 0 0.0002085955088083336 -0.034773986356795572 0 8.2285523585540432e-05 -0.034750678951589876 0 0.00037508456077874704 -0.034703896892829711 0 0.00021301185123140479 -0.034598993836813412 0 0.0002085955088083336 -0.034773986356795572 0 4.9416972817132808e-05 -0.034891549263518798 0 0.0002085955088083336 -0.034773986356795572 0 5.6703164290197727e-05 -0.034858678618927642 0 0.0002085955088083336 -0.034773986356795572 0 5.6703164290197727e-05 -0.034858678618927642 0 8.2285523585540432e-05 -0.034750678951589876 0 7.8395188717981533e-05 -0.034723131240173948 0 8.1885547124068591e-05 -0.034726205992011407 0 -2.1474796721353941e-05 -0.034844724305337534 0 5.6703164290197727e-05 -0.034858678618927642 0 8.2285523585540432e-05 -0.034750678951589876 0 4.8983549109720721e-05 -0.034877758384723304 0 -2.1474796721353941e-05 -0.034844724305337534 0 5.6703164290197727e-05 -0.034858678618927642 0 -2.1474796721353941e-05 -0.034844724305337534 0 3.0153441711066351e-06 -0.03466226978279148 0 8.2285523585540432e-05 -0.034750678951589876 0 0.0014099287100143565 -0.017839326965855513 0 0.0016582150967303472 -0.017428738604716523 0 0.00048611932583980492 -0.017597896290232812 0 0.00058344975902838397 -0.017048087404873399 0 0.00032214245926905766 -0.017421530012287002 0 -0.00012838094828888103 -0.01958239192444516 0 0.00013249513740317149 -0.019542878147125169 0 6.301184110638552e-05 -0.019665060205498294 0 -0.00012838094828888103 -0.01958239192444516 0 -7.9301952949185239e-05 -0.019609370568551162 0 6.301184110638552e-05 -0.019665060205498294 0 -0.00012838094828888103 -0.01958239192444516 0 -7.3914057129062234e-05 -0.019514127176562181 0 -7.9301952949185239e-05 -0.019609370568551162 0 -0.00012838094828888103 -0.01958239192444516 0 -0.00011996332400622876 -0.019315512289903112 0 -0.00018558170033837899 -0.019655824772980366 0 -0.00012838094828888103 -0.01958239192444516 0 -0.00011996332400622876 -0.019315512289903112 0 0.00013249513740317149 -0.019542878147125169 0 0.0014099287100143565 -0.017839326965855513 0 0.0013243500634621563 -0.017939926571283942 0 -0.00011996332400622876 -0.019315512289903112 0 0.00013249513740317149 -0.019542878147125169 0 0.00013153188234025923 -0.018513517733458332 0 0.00048611932583980492 -0.017597896290232812 0 0.00013153188234025923 -0.018513517733458332 0 4.6248284266296891e-05 -0.01784377806271422 0 0.00013153188234025923 -0.018513517733458332 0 -4.3120521773941473e-07 -0.017968600077179445 0 -0.00012769255414395264 -0.019268341934671342 0 0.00013153188234025923 -0.018513517733458332 0 -4.3120521773941473e-07 -0.017968600077179445 0 -2.594658119195392e-05 -0.017571760018404031 0 -4.3120521773941473e-07 -0.017968600077179445 0 -0.00012769255414395264 -0.019268341934671342 0 -3.6748783941619341e-07 -0.019889470250655465 0 -0.00011996332400622876 -0.019315512289903112 0 0.00013153188234025923 -0.018513517733458332 0 -0.00012769255414395264 -0.019268341934671342 0 -0.00011996332400622876 -0.019315512289903112 0 -0.00012769255414395264 -0.019268341934671342 0 -0.00018558170033837899 -0.019655824772980366 0 -0.00018558170033837899 -0.019655824772980366 0 -7.8255291772054788e-05 -0.020269144069009534 0 -2.5385848658025698e-05 -0.020141687773132817 0 -0.00012769255414395264 -0.019268341934671342 0 -0.00018558170033837899 -0.019655824772980366 0 -7.8255291772054788e-05 -0.020269144069009534 0 -3.6748783941619341e-07 -0.019889470250655465 0 -7.8255291772054788e-05 -0.020269144069009534 0 4.5774017953114973e-07 -0.021809979973834482 0 -0.00012769255414395264 -0.019268341934671342 0 -3.6748783941619341e-07 -0.019889470250655465 0 -7.8255291772054788e-05 -0.020269144069009534 0 -7.8255291772054788e-05 -0.020269144069009534 0 4.5774017953114973e-07 -0.021809979973834482 0 0.00014633491354647309 -0.021043236724175508 0 0.00014633491354647309 -0.021043236724175508 0 -2.5385848658025698e-05 -0.020141687773132817 0 0.00054839816903983884 -0.020373336809627371 0 -7.8255291772054788e-05 -0.020269144069009534 0 0.00014633491354647309 -0.021043236724175508 0 -2.5385848658025698e-05 -0.020141687773132817 0 -2.5385848658025698e-05 -0.020141687773132817 0 0.00025664623532463155 -0.019904847361752714 0 0.00054839816903983884 -0.020373336809627371 0 0.00025664623532463155 -0.019904847361752714 0 0.00018223896171759061 -0.019580174870211901 0 0.00049148709