<?xml version="1.0"?>
<VTKFile type="UnstructuredGrid" version="0.1" byte_order="LittleEndian">
<UnstructuredGrid>
<Piece NumberOfPoints="31177" NumberOfCells="10961">
<Points>
<DataArray type="Float64" NumberOfComponents="3" format="ascii">
-0.5 -0.5 0 -0.48751902936526309 -0.4822042947200969 0 -0.44022431306018289 -0.5 0 -0.5 -0.5 0 -0.48433163366697418 -0.45643525870022061 0 -0.5 -0.38893433234773711 0 -0.5 -0.5 0 -0.48751902936526309 -0.4822042947200969 0 -0.48433163366697418 -0.45643525870022061 0 -0.48751902936526309 -0.4822042947200969 0 -0.48433163366697418 -0.45643525870022061 0 -0.48751902936526309 -0.4822042947200969 0 -0.45874615430146221 -0.47268159406608151 0 -0.47397924982650441 -0.4654772354007507 0 -0.48751902936526309 -0.4822042947200969 0 -0.45874615430146221 -0.47268159406608151 0 -0.44022431306018289 -0.5 0 -0.45874615430146221 -0.47268159406608151 0 -0.43903061096346863 -0.47925257736617249 0 -0.44845059555315958 -0.45881773292612471 0 -0.45874615430146221 -0.47268159406608151 0 -0.43903061096346863 -0.47925257736617249 0 -0.44022431306018289 -0.5 0 -0.44680032073252768 -0.44162814978213538 0 -0.43122205996359242 -0.45999363134296878 0 -0.44680032073252768 -0.44162814978213538 0 -0.44845059555315958 -0.45881773292612471 0 -0.43122205996359242 -0.45999363134296878 0 -0.43903061096346863 -0.47925257736617249 0 -0.44845059555315958 -0.45881773292612471 0 -0.43122205996359242 -0.45999363134296878 0 -0.45874615430146221 -0.47268159406608151 0 -0.46532018197231789 -0.45058779411660371 0 -0.47397924982650441 -0.4654772354007507 0 -0.45874615430146221 -0.47268159406608151 0 -0.44845059555315958 -0.45881773292612471 0 -0.46532018197231789 -0.45058779411660371 0 -0.44680032073252768 -0.44162814978213538 0 -0.44845059555315958 -0.45881773292612471 0 -0.46532018197231789 -0.45058779411660371 0 -0.44680032073252768 -0.44162814978213538 0 -0.46532018197231789 -0.45058779411660371 0 -0.46237858150146322 -0.42326266822130187 0 -0.46532018197231789 -0.45058779411660371 0 -0.48433163366697418 -0.45643525870022061 0 -0.48114423796868527 -0.43066622268034438 0 -0.48433163366697418 -0.45643525870022061 0 -0.48114423796868527 -0.43066622268034438 0 -0.46532018197231789 -0.45058779411660371 0 -0.48433163366697418 -0.45643525870022061 0 -0.47397924982650441 -0.4654772354007507 0 -0.48751902936526309 -0.4822042947200969 0 -0.48433163366697418 -0.45643525870022061 0 -0.47397924982650441 -0.4654772354007507 0 -0.48114423796868527 -0.43066622268034438 0 -0.48548011068122082 -0.3960278751676426 0 -0.47795684227039781 -0.40489718666046798 0 -0.48433163366697418 -0.45643525870022061 0 -0.48114423796868527 -0.43066622268034438 0 -0.5 -0.38893433234773711 0 -0.48114423796868527 -0.43066622268034438 0 -0.47795684227039781 -0.40489718666046798 0 -0.48114423796868527 -0.43066622268034438 0 -0.47795684227039781 -0.40489718666046798 0 -0.46237858150146322 -0.42326266822130187 0 -0.47795684227039781 -0.40489718666046798 0 -0.46237858150146322 -0.42326266822130187 0 -0.46532018197231789 -0.45058779411660371 0 -0.48114423796868527 -0.43066622268034438 0 -0.46237858150146322 -0.42326266822130187 0 -0.48114423796868527 -0.43066622268034438 0 -0.5 -0.38893433234773711 0 -0.48548011068122082 -0.3960278751676426 0 -0.49429735227721261 -0.37711251551515079 0 -0.48548011068122082 -0.3960278751676426 0 -0.47457296560236162 -0.3775396672309787 0 -0.5 -0.38893433234773711 0 -0.49429735227721261 -0.37711251551515079 0 -0.48548011068122082 -0.3960278751676426 0 -0.47795684227039781 -0.40489718666046798 0 -0.47457296560236162 -0.3775396672309787 0 -0.48548011068122082 -0.3960278751676426 0 -0.47795684227039781 -0.40489718666046798 0 -0.47457296560236162 -0.3775396672309787 0 -0.47795684227039781 -0.40489718666046798 0 -0.47457296560236162 -0.3775396672309787 0 -0.46376060626467153 -0.3922615529209425 0 -0.48548011068122082 -0.3960278751676426 0 -0.47795684227039781 -0.40489718666046798 0 -0.45648867455914038 -0.376309506478477 0 -0.46376060626467153 -0.3922615529209425 0 -0.44823735747725268 -0.39515642411578039 0 -0.47457296560236162 -0.3775396672309787 0 -0.45648867455914038 -0.376309506478477 0 -0.46376060626467153 -0.3922615529209425 0 -0.47795684227039781 -0.40489718666046798 0 -0.46376060626467153 -0.3922615529209425 0 -0.45922936953350002 -0.40610457315475651 0 -0.46376060626467153 -0.3922615529209425 0 -0.45922936953350002 -0.40610457315475651 0 -0.44823735747725268 -0.39515642411578039 0 -0.44823735747725268 -0.39515642411578039 0 -0.4438134601537147 -0.41494503385528969 0 -0.43219046494716701 -0.40021198337507768 0 -0.45922936953350002 -0.40610457315475651 0 -0.44823735747725268 -0.39515642411578039 0 -0.4438134601537147 -0.41494503385528969 0 -0.45648867455914038 -0.376309506478477 0 -0.44823735747725268 -0.39515642411578039 0 -0.43160547350557837 -0.38308151294678289 0 -0.44680032073252768 -0.44162814978213538 0 -0.46237858150146322 -0.42326266822130187 0 -0.47795684227039781 -0.40489718666046798 0 -0.45922936953350002 -0.40610457315475651 0 -0.46237858150146322 -0.42326266822130187 0 -0.45922936953350002 -0.40610457315475651 0 -0.46237858150146322 -0.42326266822130187 0 -0.4438134601537147 -0.41494503385528969 0 -0.44680032073252768 -0.44162814978213538 0 -0.4438134601537147 -0.41494503385528969 0 -0.43138986363898219 -0.42602009124183932 0 -0.44680032073252768 -0.44162814978213538 0 -0.46237858150146322 -0.42326266822130187 0 -0.4438134601537147 -0.41494503385528969 0 -0.44680032073252768 -0.44162814978213538 0 -0.43138986363898219 -0.42602009124183932 0 -0.4207688708560734 -0.43832056335933539 0 -0.4438134601537147 -0.41494503385528969 0 -0.42321262735388432 -0.41268674335930411 0 -0.43219046494716701 -0.40021198337507768 0 -0.43138986363898219 -0.42602009124183932 0 -0.42321262735388432 -0.41268674335930411 0 -0.41335416808445818 -0.42384800679288609 0 -0.4438134601537147 -0.41494503385528969 0 -0.43138986363898219 -0.42602009124183932 0 -0.42321262735388432 -0.41268674335930411 0 -0.42321262735388432 -0.41268674335930411 0 -0.41335416808445818 -0.42384800679288609 0 -0.40282404173538888 -0.40702981219769402 0 -0.43138986363898219 -0.42602009124183932 0 -0.41335416808445818 -0.42384800679288609 0 -0.4207688708560734 -0.43832056335933539 0 -0.41335416808445818 -0.42384800679288609 0 -0.39790480789498939 -0.43001477699167268 0 -0.4207688708560734 -0.43832056335933539 0 -0.44823735747725268 -0.39515642411578039 0 -0.43160547350557837 -0.38308151294678289 0 -0.43219046494716701 -0.40021198337507768 0 -0.43160547350557837 -0.38308151294678289 0 -0.43219046494716701 -0.40021198337507768 0 -0.41794939899847172 -0.39848122228746818 0 -0.42321262735388432 -0.41268674335930411 0 -0.43219046494716701 -0.40021198337507768 0 -0.41794939899847172 -0.39848122228746818 0 -0.41794939899847172 -0.39848122228746818 0 -0.40868131635729082 -0.38519198219833473 0 -0.40282404173538888 -0.40702981219769402 0 -0.42321262735388432 -0.41268674335930411 0 -0.41794939899847172 -0.39848122228746818 0 -0.40282404173538888 -0.40702981219769402 0 -0.43160547350557837 -0.38308151294678289 0 -0.40868131635729082 -0.38519198219833473 0 -0.42115124941476312 -0.36489895098554448 0 -0.43160547350557837 -0.38308151294678289 0 -0.41794939899847172 -0.39848122228746818 0 -0.40868131635729082 -0.38519198219833473 0 -0.40868131635729082 -0.38519198219833473 0 -0.38590282579362589 -0.39142853984924059 0 -0.39751943925550509 -0.36866721498576338 0 -0.38590282579362589 -0.39142853984924059 0 -0.40282404173538888 -0.40702981219769402 0 -0.38629358910583422 -0.41403278314040459 0 -0.40868131635729082 -0.38519198219833473 0 -0.38590282579362589 -0.39142853984924059 0 -0.40282404173538888 -0.40702981219769402 0 -0.38590282579362589 -0.39142853984924059 0 -0.38629358910583422 -0.41403278314040459 0 -0.37028001905761138 -0.40706685236220919 0 -0.38590282579362589 -0.39142853984924059 0 -0.39751943925550509 -0.36866721498576338 0 -0.37719033047965739 -0.37051117122021082 0 -0.39790480789498939 -0.43001477699167268 0 -0.40282404173538888 -0.40702981219769402 0 -0.38629358910583422 -0.41403278314040459 0 -0.41335416808445818 -0.42384800679288609 0 -0.39790480789498939 -0.43001477699167268 0 -0.40282404173538888 -0.40702981219769402 0 -0.38629358910583422 -0.41403278314040459 0 -0.37659264900509798 -0.42795770047581377 0 -0.37028001905761138 -0.40706685236220919 0 -0.37659264900509798 -0.42795770047581377 0 -0.38674462311888408 -0.44395960765316989 0 -0.36659252058135661 -0.44052552659087629 0 -0.39790480789498939 -0.43001477699167268 0 -0.37659264900509798 -0.42795770047581377 0 -0.38674462311888408 -0.44395960765316989 0 -0.39790480789498939 -0.43001477699167268 0 -0.38629358910583422 -0.41403278314040459 0 -0.37659264900509798 -0.42795770047581377 0 -0.38674462311888408 -0.44395960765316989 0 -0.38888155141295949 -0.46157312217675001 0 -0.3747191907530395 -0.45357632095639189 0 -0.38674462311888408 -0.44395960765316989 0 -0.3747191907530395 -0.45357632095639189 0 -0.36659252058135661 -0.44052552659087629 0 -0.39790480789498939 -0.43001477699167268 0 -0.38674462311888408 -0.44395960765316989 0 -0.40203887348789541 -0.45229496765741528 0 -0.38674462311888408 -0.44395960765316989 0 -0.40203887348789541 -0.45229496765741528 0 -0.38888155141295949 -0.46157312217675001 0 -0.40203887348789541 -0.45229496765741528 0 -0.38888155141295949 -0.46157312217675001 0 -0.40208375924591722 -0.47218711134689217 0 -0.38888155141295949 -0.46157312217675001 0 -0.37840767216301419 -0.46885233535278242 0 -0.3747191907530395 -0.45357632095639189 0 -0.38894362446090441 -0.47756725195448108 0 -0.37260964142568559 -0.48104531320596122 0 -0.37840767216301419 -0.46885233535278242 0 -0.38894362446090441 -0.47756725195448108 0 -0.37260964142568559 -0.48104531320596122 0 -0.38039150527401761 -0.49836488551281871 0 -0.39643967500759247 -0.5 0 -0.36436762718699423 -0.50000000000000133 0 -0.38888155141295949 -0.46157312217675001 0 -0.37840767216301419 -0.46885233535278242 0 -0.38894362446090441 -0.477567251954481
[...]
<PointData Scalars="" Vectors="displacement," Tensors="">
<DataArray type="Float64" Name="displacement" NumberOfComponents="3" format="ascii">
-2.3499795210327291e-07 -0.05499704485958215 0 -0.00011661023661101095 -0.0537601582768545 0 7.2931904724698722e-08 -0.054999069512014637 0 -2.3499795210327291e-07 -0.05499704485958215 0 -2.2972039994106029e-05 -0.050397057868337328 0 -1.0573683200348367e-06 -0.042787124835700234 0 -2.3499795210327291e-07 -0.05499704485958215 0 -0.00011661023661101095 -0.0537601582768545 0 -2.2972039994106029e-05 -0.050397057868337328 0 -0.00024697840423301161 -0.053447193548560576 0 -0.00015237928181745768 -0.052181664609566129 0 -0.00011661023661101095 -0.0537601582768545 0 6.6987243843894847e-06 -0.054323472188534505 0 3.7896747517611007e-05 -0.054053982028697441 0 -0.00011661023661101095 -0.0537601582768545 0 6.6987243843894847e-06 -0.054323472188534505 0 7.2931904724698722e-08 -0.054999069512014637 0 6.6987243843894847e-06 -0.054323472188534505 0 -4.015891882991072e-05 -0.054450366752407754 0 -6.332515822860289e-05 -0.054280859924594672 0 6.6987243843894847e-06 -0.054323472188534505 0 -4.015891882991072e-05 -0.054450366752407754 0 7.2931904724698722e-08 -0.054999069512014637 0 -0.00025306388112217841 -0.051315647845308843 0 -0.00021929770371647509 -0.052114966199030395 0 8.4068854734199863e-05 -0.054261797612756527 0 -6.332515822860289e-05 -0.054280859924594672 0 -0.00025934617602687475 -0.054189168201422826 0 -4.015891882991072e-05 -0.054450366752407754 0 -6.332515822860289e-05 -0.054280859924594672 0 -0.00025934617602687475 -0.054189168201422826 0 6.6987243843894847e-06 -0.054323472188534505 0 6.7422139865820063e-05 -0.054118112062636878 0 3.7896747517611007e-05 -0.054053982028697441 0 6.6987243843894847e-06 -0.054323472188534505 0 -6.332515822860289e-05 -0.054280859924594672 0 6.7422139865820063e-05 -0.054118112062636878 0 8.4068854734199863e-05 -0.054261797612756527 0 -6.332515822860289e-05 -0.054280859924594672 0 6.7422139865820063e-05 -0.054118112062636878 0 8.4068854734199863e-05 -0.054261797612756527 0 6.7422139865820063e-05 -0.054118112062636878 0 0.00028083374563895469 -0.054085168573881105 0 6.7422139865820063e-05 -0.054118112062636878 0 8.1937931858523856e-05 -0.053960561418739617 0 0.00022129227985641281 -0.05393012613578517 0 -0.00015237928181745768 -0.052181664609566129 0 1.6252165107600748e-05 -0.050900853321322583 0 6.7422139865820063e-05 -0.054118112062636878 0 8.1937931858523856e-05 -0.053960561418739617 0 3.7896747517611007e-05 -0.054053982028697441 0 -0.00011661023661101095 -0.0537601582768545 0 8.1937931858523856e-05 -0.053960561418739617 0 3.7896747517611007e-05 -0.054053982028697441 0 -0.00010868046610489934 -0.047512357377135828 0 -0.00031608612682660351 -0.044212110061448845 0 -0.0002533463558569517 -0.04517708227714707 0 -2.2972039994106029e-05 -0.050397057868337328 0 -0.00010868046610489934 -0.047512357377135828 0 -1.0573683200348367e-06 -0.042787124835700234 0 1.6252165107600748e-05 -0.050900853321322583 0 -0.00027017821991626346 -0.048043502385761883 0 0.00022129227985641281 -0.05393012613578517 0 0.00044788569522040666 -0.053880982282774936 0 0.00028083374563895469 -0.054085168573881105 0 -0.00027017821991626346 -0.048043502385761883 0 -0.00040806980615378777 -0.051061233613156724 0 6.7422139865820063e-05 -0.054118112062636878 0 0.00022129227985641281 -0.05393012613578517 0 0.00028083374563895469 -0.054085168573881105 0 -0.00010868046610489934 -0.047512357377135828 0 -1.0573683200348367e-06 -0.042787124835700234 0 -0.00031608612682660351 -0.044212110061448845 0 -1.2847542508439142e-05 -0.042083546986304649 0 -0.00031608612682660351 -0.044212110061448845 0 -0.00036263975237133439 -0.045391479866410865 0 -1.0573683200348367e-06 -0.042787124835700234 0 -1.2847542508439142e-05 -0.042083546986304649 0 -0.00031608612682660351 -0.044212110061448845 0 -0.00027017821991626346 -0.048043502385761883 0 -0.00047496075957744458 -0.044737492343731748 0 -0.00031608612682660351 -0.044212110061448845 0 -0.00045708210926790097 -0.044269832493524036 0 -0.00036263975237133439 -0.045391479866410865 0 -0.00096612201734394771 -0.046557189830938796 0 -0.00036263975237133439 -0.045391479866410865 0 -0.00076853639350484405 -0.046624209489640328 0 0.00042916471775161297 -0.044810855013282372 0 -0.00027017821991626346 -0.048043502385761883 0 -0.00057501863886134247 -0.046644913068391268 0 -0.00076853639350484405 -0.046624209489640328 0 -0.00075860957213752511 -0.04726211633590803 0 -0.00036263975237133439 -0.045391479866410865 0 -0.00057501863886134247 -0.046644913068391268 0 -0.00076853639350484405 -0.046624209489640328 0 -0.00096612201734394771 -0.046557189830938796 0 -0.00076853639350484405 -0.046624209489640328 0 -0.00083069356702426703 -0.047155144177491982 0 -0.00076853639350484405 -0.046624209489640328 0 -0.00083069356702426703 -0.047155144177491982 0 -0.00075860957213752511 -0.04726211633590803 0 -0.00075860957213752511 -0.04726211633590803 0 -0.00071224191128081325 -0.047905329433128176 0 -0.00073166011674451192 -0.047714206782813434 0 -0.00083069356702426703 -0.047155144177491982 0 -0.00075860957213752511 -0.04726211633590803 0 -0.00071224191128081325 -0.047905329433128176 0 -0.00057501863886134247 -0.046644913068391268 0 -0.00075860957213752511 -0.04726211633590803 0 -0.00084270029013463284 -0.047331598738538212 0 -0.00025306388112217841 -0.051315647845308843 0 -0.00040806980615378777 -0.051061233613156724 0 -0.00096612201734394771 -0.046557189830938796 0 -0.00083069356702426703 -0.047155144177491982 0 -0.00093816877094418129 -0.047445908530972483 0 -0.00083069356702426703 -0.047155144177491982 0 -0.00093816877094418129 -0.047445908530972483 0 -0.00071224191128081325 -0.047905329433128176 0 -0.00074422460595623423 -0.048558676270030493 0 -0.00071224191128081325 -0.047905329433128176 0 -0.00054814610371113485 -0.048602492386100545 0 -0.00074422460595623423 -0.048558676270030493 0 -0.00093816877094418129 -0.047445908530972483 0 -0.00071224191128081325 -0.047905329433128176 0 -0.00074422460595623423 -0.048558676270030493 0 -0.00054814610371113485 -0.048602492386100545 0 -0.00036502873505492539 -0.049469990098769442 0 -0.00071224191128081325 -0.047905329433128176 0 -0.00061697028112947798 -0.048214999870151036 0 -0.00073166011674451192 -0.047714206782813434 0 -0.00054814610371113485 -0.048602492386100545 0 -0.00061697028112947798 -0.048214999870151036 0 -0.00050125672354196554 -0.04868749154018983 0 -0.00071224191128081325 -0.047905329433128176 0 -0.00054814610371113485 -0.048602492386100545 0 -0.00061697028112947798 -0.048214999870151036 0 -0.00061697028112947798 -0.048214999870151036 0 -0.00050125672354196554 -0.04868749154018983 0 -0.00065522848829521784 -0.047810222946625944 0 -0.00054814610371113485 -0.048602492386100545 0 -0.00050125672354196554 -0.04868749154018983 0 -0.00036502873505492539 -0.049469990098769442 0 -0.00050125672354196554 -0.04868749154018983 0 -0.00039506640682363128 -0.048811903765304261 0 -0.00036502873505492539 -0.049469990098769442 0 -0.00075860957213752511 -0.04726211633590803 0 -0.00084270029013463284 -0.047331598738538212 0 -0.00073166011674451192 -0.047714206782813434 0 -0.00084270029013463284 -0.047331598738538212 0 -0.00073166011674451192 -0.047714206782813434 0 -0.00076389772363852913 -0.047697962862887945 0 -0.00061697028112947798 -0.048214999870151036 0 -0.00073166011674451192 -0.047714206782813434 0 -0.00076389772363852913 -0.047697962862887945 0 -0.00076389772363852913 -0.047697962862887945 0 -0.00098507486977855783 -0.047201545992510426 0 -0.00065522848829521784 -0.047810222946625944 0 -0.00061697028112947798 -0.048214999870151036 0 -0.00076389772363852913 -0.047697962862887945 0 -0.00065522848829521784 -0.047810222946625944 0 -0.00084270029013463284 -0.047331598738538212 0 -0.00098507486977855783 -0.047201545992510426 0 -0.0012235304269506025 -0.04692500723031786 0 -0.00084270029013463284 -0.047331598738538212 0 -0.00076389772363852913 -0.047697962862887945 0 -0.00098507486977855783 -0.047201545992510426 0 -0.00098507486977855783 -0.047201545992510426 0 -0.00094454789495649488 -0.046649733034264292 0 -0.0014760454588117321 -0.046435233683776701 0 -0.00094454789495649488 -0.046649733034264292 0 -0.00065522848829521784 -0.047810222946625944 0 -0.00055929330129443568 -0.047552441770812318 0 -0.00098507486977855783 -0.047201545992510426 0 -0.00094454789495649488 -0.046649733034264292 0 -0.00065522848829521784 -0.047810222946625944 0 -0.00094454789495649488 -0.046649733034264292 0 -0.00055929330129443568 -0.047552441770812318 0 -0.00058740632087140351 -0.046483541883327963 0 -0.00094454789495649488 -0.046649733034264292 0 -0.0014760454588117321 -0.046435233683776701 0 -0.001629934558534118 -0.045438345803238196 0 -0.00039506640682363128 -0.048811903765304261 0 -0.00065522848829521784 -0.047810222946625944 0 -0.00055929330129443568 -0.047552441770812318 0 -0.00050125672354196554 -0.04868749154018983 0 -0.00039506640682363128 -0.048811903765304261 0 -0.00065522848829521784 -0.047810222946625944 0 -0.00055929330129443568 -0.047552441770812318 0 -0.00037347145224852054 -0.047742119325735154 0 -0.00058740632087140351 -0.046483541883327963 0 -0.00037347145224852054 -0.047742119325735154 0 -0.00021387418004362535 -0.049182891701589168 0 -0.000159611088709128 -0.047688701587102339 0 -0.00039506640682363128 -0.048811903765304261 0 -0.00037347145224852054 -0.047742119325735154 0 -0.00021387418004362535 -0.049182891701589168 0 -0.00039506640682363128 -0.048811903765304261 0 -0.00055929330129443568 -0.047552441770812318 0 -0.00037347145224852054 -0.047742119325735154 0 -0.00021387418004362535 -0.049182891701589168 0 0.00016574766124107968 -0.050654087162519658 0 3.2922997431337429e-05 -0.048863825666720533 0 -0.00021387418004362535 -0.049182891701589168 0 3.2922997431337429e-05 -0.048863825666720533 0 -0.000159611088709128 -0.047688701587102339 0 -0.00039506640682363128 -0.048811903765304261 0 -0.00021387418004362535 -0.049182891701589168 0 -0.00014085637066267383 -0.050412889969025175 0 -0.00021387418004362535 -0.049182891701589168 0 -0.00014085637066267383 -0.050412889969025175 0 0.00016574766124107968 -0.050654087162519658 0 -0.00014085637066267383 -0.050412889969025175 0 0.00016574766124107968 -0.050654087162519658 0 0.00035981667024599591 -0.052324075719877967 0 0.00016574766124107968 -0.050654087162519658 0 0.00060314088091485251 -0.050012392667233681 0 3.2922997431337429e-05 -0.048863825666720533 0 0.0010637614941353204 -0.052432860152346029 0 0.001323068812866454 -0.05221040082980874 0 0.00060314088091485251 -0.050012392667233681 0 0.00086510454795868722 -0.052553266738285372 0 0.002140754779011109 -0.049270026939656382 0 -1.6320833135581086e-05 -0.054911923937845289 0 6.4989916246373015e-07 -0.054994801764148338 0 -4.5924263460578436e-07 -0.055001312542317334 0 0.00016574766124107968 -0.050654087162519658 0 0.00060314088091485251 -0.050012392667233681 0 0.00086510454795868722 -0.052553266738285372 0 0.00086510454795868722 -0.052553266738285372 0 -1.6320833135581086e-05 -0.054911923937845289 0 6.4989916246373015e-07 -0.054994801764148338 0 0.00086510454795868722 -0.052553266738285372 0 -1.6320833135581086e-05 -0.054911923937845289 0 0.00081996405742700929 -0.054782307802431873 0 6.4989916246373015e-07 -0.054994801764148338 0 0.00035981667024599591 -0.052324075719877967 0 9.1071206859348901e-05 -0.053224045651795081 0 0.00016574766124107968 -0.050654087162519658 0 0.00086510454795868722 -0.052553266738285372 0 0.00035981667024599591 -0.052324075719877967 0 0.00086510454795868722 -0.052553266738285372 0 6.4989916246373015e-07 -0.054994801764148338 0 0.00035981667024599591 -0.052324075719877967 0 7.2931904724698722e-08 -0.054999069512014637 0 6.4989916246373015e-07 -0.054994801764148338 0 9.1071206859348901e-05 -0.053224045651795081 0 -4.015891882991072e-05 -0.054450366752407754 0 7.2931904724698722e-08 -0.054999069512014637 0 9.1071206859348901e-05 -0.053224045651795081 0 -4.015891882991072e-05 -0.054450366752407754 0 9.1071206859348901e-05 -0.053224045651795081 0 -0.00025934617602687475 -0.054189168201422826 0 9.4138092259826581e-05 -0.052892817614959058 0 -0.00021929770371647509 -0.052114966199030395 0 -0.00046797959234065671 -0.050050928531704703 0 -0.00036502873505492539 -0.049469990098769442 0 -0.00022090976348462858 -0.050644246595691403 0 -0.00074422460595623423 -0.048558676270030493 0 -0.00046797959234065671 -0.050050928531704703 0 -0.00036502873505492539 -0.049469990098769442 0 -0.00039506640682363128 -0.048811903765304261 0 -0.00014085637066267383 -0.050412889969025175 0 -0.00036502873505492539 -0.049469990098769442 0 -0.00014085637066267383 -0.050412889969025175 0 -0.00036502873505492539 -0.049469990098769442 0 -0.00022090976348462858 -0.050644246595691403 0 0.00035981667024599591 -0.052324075719877967 0 9.1071206859348901e-05 -0.053224045651795081 0 -0.00022090976348462858 -0.050644246595691403 0 9.1071206859348901e-05 -0.053224045651795081 0 -0.00046797959234065671 -0.050050928531704703 0 -0.00022090976348462858 -0.050644246595691403 0 -0.00014085637066267383 -0.050412889969025175 0 0.00035981667024599591 -0.052324075719877967 0 -0.00022090976348462858 -0.050644246595691403 0 -0.0047321389564016882 -0.032156488362560985 0 -0.0033794174685548065 -0.031356261851394701 0 -0.0039011151167252069 -0.033150017537765461 0 -0.0047321389564016882 -0.032156488362560985 0 -0.0040061594684753111 -0.030273547609285221 0 -0.0056985424690667325 -0.030980072968764295 0 -0.0047321389564016882 -0.032156488362560985 0 -0.0033794174685548065 -0.031356261851394701 0 -0.0040061594684753111 -0.030273547609285221 0 -0.0033794174685548065 -0.031356261851394701 0 -0.0039011151167252069 -0.033150017537765461 0 -0.0029194989752152158 -0.03278409330769444 0 -0.0033794174685548065 -0.031356261851394701 0 -0.0029194989752152158 -0.03278409330769444 0 -0.0019967920827790135 -0.032200852611324091 0 -0.0039011151167252069 -0.033150017537765461 0 -0.0029194989752152158 -0.03278409330769444 0 -0.0028408347099728843 -0.034215402987480895 0 -0.0029194989752152158 -0.03278409330769444 0 -0.0028408347099728843 -0.034215402987480895 0 -0.0024571439636772046 -0.033480511171237931 0 -0.0047321389564016882 -0.032156488362560985 0 -0.0039011151167252069 -0.033150017537765461 0 -0.0052410862156148773 -0.033709977467537927 0 -0.0039011151167252069 -0.033150017537765461 0 -0.0052410862156148773 -0.033709977467537927 0 -0.0044332107689787244 -0.035176631051868183 0 -0.00010787184532802534 -0.028485014112307507 0 5.6671300941712654e-07 -0.031415459175016612 0 6.7331767293167001e-05 -0.024663224129186437 0 -0.00010787184532802534 -0.028485014112307507 0 1.5379545836009061e-05 -0.031522131209938867 0 5.6671300941712654e-07 -0.031415459175016612 0 -0.0027796927457478227 -0.032358971287666592 0 -0.0011218185044374069 -0.033525473353768903 0 -0.0044332107689787244 -0.035176631051868183 0 -0.0028408347099728843 -0.034215402987480895 0 -0.0021611254321305408 -0.035676119187141114 0 -0.0039011151167252069 -0.033150017537765461 0 -0.0044332107689787244 -0.035176631051868183 0 -0.0028408347099728843 -0.034215402987480895 0 -0.002193461072578385 -0.03468864519668504 0 -0.0021611254321305408 -0.035676119187141114 0 -0.0016229147445395004 -0.034749300914393974 0 -0.0028408347099728843 -0.034215402987480895 0 -0.002193461072578385 -0.03468864519668504 0 -0.0021918439124507735 -0.034064007807078245 0 -0.0028408347099728843 -0.034215402987480895 0 -0.002193461072578385 -0.03468864519668504 0 -0.0021611254321305408 -0.035676119187141114 0 1.5379545836009061e-05 -0.031522131209938867 0 5.6671300941712654e-07 -0.031415459175016612 0 3.9097913053552194e-05 -0.034886646889274897 0 -0.002193461072578385 -0.03468864519668504 0 -0.0016229147445395004 -0.034749300914393974 0 -0.0021918439124507735 -0.034064007807078245 0 -0.0011218185044374069 -0.033525473353768903 0 -0.00049269386351595307 -0.035799313648801186 0 -0.0016229147445395004 -0.034749300914393974 0 -0.00074247931107974691 -0.034900959721612036 0 -0.00078722891146897685 -0.036541030749232803 0 -0.0021611254321305408 -0.035676119187141114 0 -0.0016229147445395004 -0.034749300914393974 0 -0.00078722891146897685 -0.036541030749232803 0 -0.0016229147445395004 -0.034749300914393974 0 -0.0018878493854997491 -0.033019281320470835 0 -0.00074247931107974691 -0.034900959721612036 0 -0.0018878493854997491 -0.033019281320470835 0 -0.0011790086449412205 -0.03253972781706229 0 0.00013606422841402197 -0.034062331787510648 0 -0.00051711607769272777 -0.032422801758875811 0 -0.0011790086449412205 -0.03253972781706229 0 0.00013606422841402197 -0.034062331787510648 0 -0.0018245163070918643 -0.033285126044980504 0 -0.00043828805568503379 -0.033963558418449565 0 -0.0016229147445395004 -0.034749300914393974 0 -0.0021918439124507735 -0.034064007807078245 0 -0.0018878493854997491 -0.033019281320470835 0 -0.0028408347099728843 -0.034215402987480895 0 -0.0024571439636772046 -0.033480511171237931 0 -0.0021918439124507735 -0.034064007807078245 0 -0.0029194989752152158 -0.03278409330769444 0 -0.0024571439636772046 -0.033480511171237931 0 -0.0018878493854997491 -0.033019281320470835 0 -0.0024571439636772046 -0.033480511171237931 0 -0.0021918439124507735 -0.034064007807078245 0 -0.0018878493854997491 -0.033019281320470835 0 -0.0019967920827790135 -0.032200852611324091 0 -0.0011790086449412205 -0.03253972781706229 0 -0.001237609067190406 -0.031325269632093991 0 -0.0033794174685548065 -0.031356261851394701 0 -0.0019967920827790135 -0.032200852611324091 0 -0.0024123153221692608 -0.030534693743861096 0 -0.0018878493854997491 -0.033019281320470835 0 -0.0019967920827790135 -0.032200852611324091 0 -0.0011790086449412205 -0.03253972781706229 0 -0.0029194989752152158 -0.03278409330769444 0 -0.0018878493854997491 -0.033019281320470835 0 -0.0019967920827790135 -0.032200852611324091 0 -0.0021921882839494853 -0.032538493841898129 0 -0.00043507204374852412 -0.029539573417367977 0 -0.0019967920827790135 -0.032200852611324091 0 -0.0011017011895452459 -0.030368072550525878 0 -0.0024123153221692608 -0.030534693743861096 0 -0.00051711607769272777 -0.032422801758875811 0 -0.0011790086449412205 -0.03253972781706229 0 -0.001237609067190406 -0.031325269632093991 0 -0.00051711607769272777 -0.032422801758875811 0 0.0002739745329859972 -0.031703930274025127 0 -0.001237609067190406 -0.031325269632093991 0 -1.0573683200348367e-06 -0.042787124835700234 0 5.6671300941712654e-07 -0.031415459175016612 0 5.5675262399319054e-05 -0.038290587712895063 0 0.00024343130895800741 -0.04010485999798679 0 -0.00075601018266349446 -0.039088199775545937 0 -0.0013075215515548654 -0.046559838329000389 0 -0.00088943787023683732 -0.046459120895209829 0 -0.0019631958648976657 -0.046568228847754918 0 0.00029983277075410538 -0.032866860342703551 0 0.0012943982582507931 -0.033341819916818137 0 0.0002739745329859972 -0.031703930274025127 0 -0.00051711607769272777 -0.032422801758875811 0 0.00029983277075410538 -0.032866860342703551 0 0.0002739745329859972 -0.031703930274025127 0 -0.0013075215515548654 -0.046559838329000389 0 -0.00079103793826782419 -0.046524320420751206 0 -0.0015195606929805424 -0.0466292798271601 0 -0.0013075215515548654 -0.046559838329000389 0 -0.00088943787023683732 -0.046459120895209829 0 -0.00079103793826782419 -0.046524320420751206 0 -0.00088943787023683732 -0.046459120895209829 0 -7.8485146163029452e-05 -0.045803256969031959 0 -0.00038225890043058313 -0.046133282640862312 0 0.00024343130895800741 -0.04010485999798679 0 0.00090934192083300808 -0.038992190685238015 0 0.0012943982582507931 -0.033341819916818137 0 0.00013606422841402197 -0.034062331787510648 0 0.0022636658479400461 -0.035149190157620191 0 -0.00088943787023683732 -0.046459120895209829 0 -0.00038225890043058313 -0.046133282640862312 0 -0.00079103793826782419 -0.046524320420751206 0 -0.00051711607769272777 -0.032422801758875811 0 0.00029983277075410538 -0.032866860342703551 0 0.00013606422841402197 -0.034062331787510648 0 0.00029983277075410538 -0.03