<?xml version="1.0"?>
<VTKFile type="UnstructuredGrid" version="0.1" byte_order="LittleEndian">
<UnstructuredGrid>
<Piece NumberOfPoints="31246" NumberOfCells="11002">
<Points>
<DataArray type="Float64" NumberOfComponents="3" format="ascii">
-0.50000000000000122 -0.48626226177556231 0 -0.5 -0.5 0 -0.47744677215909281 -0.48586902102723523 0 -0.5 -0.5 0 -0.47744677215909281 -0.48586902102723523 0 -0.43703850519391679 -0.50000000000000278 0 -0.50000000000000122 -0.48626226177556231 0 -0.47744677215909281 -0.48586902102723523 0 -0.50000000000000122 -0.48626226177556231 0 -0.48837032897421379 -0.47833512104644849 0 -0.47744677215909281 -0.48586902102723523 0 -0.50000000000000122 -0.48626226177556231 0 -0.49146454090854219 -0.4689652822595915 0 -0.5 -0.45947040656488303 0 -0.50000000000000122 -0.48626226177556231 0 -0.48837032897421379 -0.47833512104644849 0 -0.49146454090854219 -0.4689652822595915 0 -0.48837032897421379 -0.47833512104644849 0 -0.49146454090854219 -0.4689652822595915 0 -0.48021754227705432 -0.46921944800154552 0 -0.48837032897421379 -0.47833512104644849 0 -0.48021754227705432 -0.46921944800154552 0 -0.47744677215909281 -0.48586902102723523 0 -0.48021754227705432 -0.46921944800154552 0 -0.47744677215909281 -0.48586902102723523 0 -0.46669504855264982 -0.47411166219005851 0 -0.47744677215909281 -0.48586902102723523 0 -0.45489354431818457 -0.48547578027890798 0 -0.47744677215909281 -0.48586902102723523 0 -0.45489354431818457 -0.48547578027890798 0 -0.43703850519391679 -0.50000000000000278 0 -0.47744677215909281 -0.48586902102723523 0 -0.45489354431818457 -0.48547578027890798 0 -0.46669504855264982 -0.47411166219005851 0 -0.45489354431818457 -0.48547578027890798 0 -0.46669504855264982 -0.47411166219005851 0 -0.45579808238157821 -0.47072871740384009 0 -0.45489354431818457 -0.48547578027890798 0 -0.44201605671313399 -0.47822975049830801 0 -0.43234031647727622 -0.48508253953058089 0 -0.45489354431818457 -0.48547578027890798 0 -0.44755174516591978 -0.47302044260482001 0 -0.44201605671313399 -0.47822975049830801 0 -0.45489354431818457 -0.48547578027890798 0 -0.45579808238157821 -0.47072871740384009 0 -0.44755174516591978 -0.47302044260482001 0 -0.45579808238157821 -0.47072871740384009 0 -0.44755174516591978 -0.47302044260482001 0 -0.44150376996323493 -0.4669915145680098 0 -0.44118509719073001 -0.47397445435401558 0 -0.44150376996323493 -0.4669915145680098 0 -0.43366881692063142 -0.47765610974492489 0 -0.44755174516591978 -0.47302044260482001 0 -0.44118509719073001 -0.47397445435401558 0 -0.44150376996323493 -0.4669915145680098 0 -0.44755174516591978 -0.47302044260482001 0 -0.44118509719073001 -0.47397445435401558 0 -0.44201605671313399 -0.47822975049830801 0 -0.44118509719073001 -0.47397445435401558 0 -0.44201605671313399 -0.47822975049830801 0 -0.43366881692063142 -0.47765610974492489 0 -0.45489354431818457 -0.48547578027890798 0 -0.43234031647727622 -0.48508253953058089 0 -0.43703850519391679 -0.50000000000000278 0 -0.45489354431818457 -0.48547578027890798 0 -0.43234031647727622 -0.48508253953058089 0 -0.44664769923267927 -0.45303951004926701 0 -0.45038812783291587 -0.4394282604525962 0 -0.43664419314036101 -0.43620938163177569 0 -0.44664769923267927 -0.45303951004926701 0 -0.43664419314036101 -0.43620938163177569 0 -0.43399900571453209 -0.45178150049850879 0 -0.44664769923267927 -0.45303951004926701 0 -0.4370815665284552 -0.46337550336760891 0 -0.43399900571453209 -0.45178150049850879 0 -0.44664769923267927 -0.45303951004926701 0 -0.45805437768563673 -0.45314318602980719 0 -0.4370815665284552 -0.46337550336760891 0 -0.45805437768563673 -0.45314318602980719 0 -0.4370815665284552 -0.46337550336760891 0 -0.44150376996323493 -0.4669915145680098 0 -0.45805437768563673 -0.45314318602980719 0 -0.4370815665284552 -0.46337550336760891 0 -0.44150376996323493 -0.4669915145680098 0 -0.46511930162733889 -0.45926534423876397 0 -0.44150376996323493 -0.4669915145680098 0 -0.45805437768563673 -0.45314318602980719 0 -0.46511930162733889 -0.45926534423876397 0 -0.45579808238157821 -0.47072871740384009 0 -0.44150376996323493 -0.4669915145680098 0 -0.46511930162733889 -0.45926534423876397 0 -0.46669504855264982 -0.47411166219005851 0 -0.45579808238157821 -0.47072871740384009 0 -0.46511930162733889 -0.45926534423876397 0 -0.45805437768563673 -0.45314318602980719 0 -0.46511930162733889 -0.45926534423876397 0 -0.47902718884281831 -0.44291086869200552 0 -0.45805437768563673 -0.45314318602980719 0 -0.47902718884281831 -0.44291086869200552 0 -0.45805437768563673 -0.45314318602980719 0 -0.46443179948845359 -0.43800270507739131 0 -0.47902718884281831 -0.44291086869200552 0 -0.44664769923267927 -0.45303951004926701 0 -0.45038812783291587 -0.4394282604525962 0 -0.46443179948845359 -0.43800270507739131 0 -0.44664769923267927 -0.45303951004926701 0 -0.46443179948845359 -0.43800270507739131 0 -0.44664769923267927 -0.45303951004926701 0 -0.45805437768563673 -0.45314318602980719 0 -0.46443179948845359 -0.43800270507739131 0 -0.46511930162733889 -0.45926534423876397 0 -0.47902718884281831 -0.44291086869200552 0 -0.4887348332914429 -0.45153917390951809 0 -0.48021754227705432 -0.46921944800154552 0 -0.46511930162733889 -0.45926534423876397 0 -0.4887348332914429 -0.45153917390951809 0 -0.46511930162733889 -0.45926534423876397 0 -0.4887348332914429 -0.45153917390951809 0 -0.48021754227705432 -0.46921944800154552 0 -0.46669504855264982 -0.47411166219005851 0 -0.46511930162733889 -0.45926534423876397 0 -0.49146454090854219 -0.4689652822595915 0 -0.5 -0.45947040656488303 0 -0.4887348332914429 -0.45153917390951809 0 -0.49146454090854219 -0.4689652822595915 0 -0.48021754227705432 -0.46921944800154552 0 -0.4887348332914429 -0.45153917390951809 0 -0.47902718884281831 -0.44291086869200552 0 -0.49999999999999978 -0.43267855135420391 0 -0.5 -0.45947040656488303 0 -0.4887348332914429 -0.45153917390951809 0 -0.49999999999999978 -0.43267855135420391 0 -0.47902718884281831 -0.44291086869200552 0 -0.4887348332914429 -0.45153917390951809 0 -0.49999999999999978 -0.43267855135420391 0 -0.47902718884281831 -0.44291086869200552 0 -0.49999999999999978 -0.43267855135420391 0 -0.48221589974422779 -0.42296590010551549 0 -0.49999999999999978 -0.43267855135420391 0 -0.50000000000000155 -0.40792909513363901 0 -0.48221589974422779 -0.42296590010551549 0 -0.50000000000000155 -0.40792909513363901 0 -0.47888139771345339 -0.41656785451713441 0 -0.50000000000000155 -0.40792909513363901 0 -0.47888139771345339 -0.41656785451713441 0 -0.48221589974422779 -0.42296590010551549 0 -0.50000000000000155 -0.40792909513363901 0 -0.48221589974422779 -0.42296590010551549 0 -0.50000000000000155 -0.40792909513363901 0 -0.47888139771345339 -0.41656785451713441 0 -0.48523795207419068 -0.40261987222061291 0 -0.47888139771345339 -0.41656785451713441 0 -0.47060689193340433 -0.42576656779493222 0 -0.48221589974422779 -0.42296590010551549 0 -0.47888139771345339 -0.41656785451713441 0 -0.48523795207419068 -0.40261987222061291 0 -0.47329317342806781 -0.40581336687804759 0 -0.47888139771345339 -0.41656785451713441 0 -0.47329317342806781 -0.40581336687804759 0 -0.46810494572993111 -0.41519780141367668 0 -0.46443179948845359 -0.43800270507739131 0 -0.48221589974422779 -0.42296590010551549 0 -0.46443179948845359 -0.43800270507739131 0 -0.47060689193340433 -0.42576656779493222 0 -0.48221589974422779 -0.42296590010551549 0 -0.46443179948845359 -0.43800270507739131 0 -0.47902718884281831 -0.44291086869200552 0 -0.48221589974422779 -0.42296590010551549 0 -0.47888139771345339 -0.41656785451713441 0 -0.47060689193340433 -0.42576656779493222 0 -0.45776279542690718 -0.42638861807445511 0 -0.5 -0.38187796089046422 0 -0.50000000000000144 -0.39849265348142099 0 -0.48211600502069152 -0.3760246097946216 0 -0.50000000000000144 -0.39849265348142099 0 -0.48211600502069152 -0.3760246097946216 0 -0.50000000000000144 -0.39849265348142099 0 -0.48523795207419068 -0.40261987222061291 0 -0.48211600502069152 -0.3760246097946216 0 -0.50000000000000155 -0.40792909513363901 0 -0.50000000000000144 -0.39849265348142099 0 -0.48523795207419068 -0.40261987222061291 0 -0.48523795207419068 -0.40261987222061291 0 -0.47329317342806781 -0.40581336687804759 0 -0.47128289689518682 -0.38940204097588438 0 -0.48523795207419068 -0.40261987222061291 0 -0.48211600502069152 -0.3760246097946216 0 -0.47128289689518682 -0.38940204097588438 0 -0.48211600502069152 -0.3760246097946216 0 -0.47128289689518682 -0.38940204097588438 0 -0.46272413438504778 -0.37197463574957518 0 -0.45666452308407002 -0.38403218141984879 0 -0.46272413438504778 -0.37197463574957518 0 -0.4468028840339533 -0.37260501215794462 0 -0.47128289689518682 -0.38940204097588438 0 -0.45666452308407002 -0.38403218141984879 0 -0.46272413438504778 -0.37197463574957518 0 -0.47329317342806781 -0.40581336687804759 0 -0.47128289689518682 -0.38940204097588438 0 -0.45802941365459171 -0.39913142839865517 0 -0.47128289689518682 -0.38940204097588438 0 -0.45666452308407002 -0.38403218141984879 0 -0.45802941365459171 -0.39913142839865517 0 -0.47329317342806781 -0.40581336687804759 0 -0.45802941365459171 -0.39913142839865517 0 -0.4624824163512955 -0.41202136618506952 0 -0.44099050176866039 -0.40146257059613788 0 -0.44448328645156998 -0.38704778981718452 0 -0.42826734873076489 -0.39057865011278309 0 -0.45802941365459171 -0.39913142839865517 0 -0.44099050176866039 -0.40146257059613788 0 -0.44448328645156998 -0.38704778981718452 0 -0.45802941365459171 -0.39913142839865517 0 -0.44099050176866039 -0.40146257059613788 0 -0.45070919959982558 -0.41340366927254929 0 -0.44448328645156998 -0.38704778981718452 0 -0.4468028840339533 -0.37260501215794462 0 -0.43074289611824362 -0.37317088890264333 0 -0.45666452308407002 -0.38403218141984879 0 -0.45802941365459171 -0.39913142839865517 0 -0.44448328645156998 -0.38704778981718452 0 -0.45666452308407002 -0.38403218141984879 0 -0.44448328645156998 -0.38704778981718452 0 -0.4468028840339533 -0.37260501215794462 0 -0.45038812783291587 -0.4394282604525962 0 -0.46443179948845359 
[...]
<PointData Scalars="" Vectors="displacement," Tensors="">
<DataArray type="Float64" Name="displacement" NumberOfComponents="3" format="ascii">
-0.034043366257493969 -0.034998800900852702 0 -0.034997217435535591 -0.034999555937094681 0 -0.035445833467047855 -0.033529089388265924 0 -0.034997217435535591 -0.034999555937094681 0 -0.035445833467047855 -0.033529089388265924 0 -0.034999177265601721 -0.030595853372087794 0 -0.034038483564193533 -0.034999495902969906 0 -0.034239772544157741 -0.034300315923691593 0 -0.034036775318131603 -0.035000001130680983 0 -0.033323479898929594 -0.035313668812936051 0 -0.03310882908075654 -0.035375680599386922 0 -0.034036775318131603 -0.035000001130680983 0 -0.032902668278361975 -0.035280907790413388 0 -0.032163891012581734 -0.034999441863128436 0 -0.034036775318131603 -0.035000001130680983 0 -0.033323479898929594 -0.035313668812936051 0 -0.032902668278361975 -0.035280907790413388 0 -0.033323479898929594 -0.035313668812936051 0 -0.032902668278361975 -0.035280907790413388 0 -0.033183451632151278 -0.035382671293865575 0 -0.033323479898929594 -0.035313668812936051 0 -0.033183451632151278 -0.035382671293865575 0 -0.03310882908075654 -0.035375680599386922 0 -0.033183451632151278 -0.035382671293865575 0 -0.03310882908075654 -0.035375680599386922 0 -0.033408547587243875 -0.03482319652439396 0 -0.034239772544157741 -0.034300315923691593 0 -0.034197195615078578 -0.032927675192339453 0 -0.035445833467047855 -0.033529089388265924 0 -0.035502668964587591 -0.031809927670713257 0 -0.034999177265601721 -0.030595853372087794 0 -0.03310882908075654 -0.035375680599386922 0 -0.032870966886809294 -0.033892056789409736 0 -0.033408547587243875 -0.03482319652439396 0 -0.032870966886809294 -0.033892056789409736 0 -0.033408547587243875 -0.03482319652439396 0 -0.033797879746704174 -0.033976106269913743 0 -0.032870966886809294 -0.033892056789409736 0 -0.033913460357815117 -0.032557207554145082 0 -0.0341713498116318 -0.031519649391521985 0 -0.032870966886809294 -0.033892056789409736 0 -0.033973140650941425 -0.033136788019271779 0 -0.033913460357815117 -0.032557207554145082 0 -0.032870966886809294 -0.033892056789409736 0 -0.033797879746704174 -0.033976106269913743 0 -0.033973140650941425 -0.033136788019271779 0 -0.033797879746704174 -0.033976106269913743 0 -0.033973140650941425 -0.033136788019271779 0 -0.034541739950652059 -0.032550578398603973 0 -0.034139813111058279 -0.032522342238927131 0 -0.034541739950652059 -0.032550578398603973 0 -0.034144222023592567 -0.031915147925976398 0 -0.033973140650941425 -0.033136788019271779 0 -0.034139813111058279 -0.032522342238927131 0 -0.034541739950652059 -0.032550578398603973 0 -0.033973140650941425 -0.033136788019271779 0 -0.034139813111058279 -0.032522342238927131 0 -0.033913460357815117 -0.032557207554145082 0 -0.034139813111058279 -0.032522342238927131 0 -0.033913460357815117 -0.032557207554145082 0 -0.034144222023592567 -0.031915147925976398 0 -0.035502668964587591 -0.031809927670713257 0 -0.0341713498116318 -0.031519649391521985 0 -0.034999177265601721 -0.030595853372087794 0 -0.034197195615078578 -0.032927675192339453 0 -0.034173732904317175 -0.031781616976648289 0 -0.029129988217596194 -0.034620422281714198 0 -0.02847521057019153 -0.034445711066425001 0 -0.028238490565698545 -0.034893299580605858 0 -0.029129988217596194 -0.034620422281714198 0 -0.028238490565698545 -0.034893299580605858 0 -0.028938755816639277 -0.034872527515761864 0 -0.029129988217596194 -0.034620422281714198 0 -0.029408684908348661 -0.034690206494143574 0 -0.028938755816639277 -0.034872527515761864 0 -0.029129988217596194 -0.034620422281714198 0 -0.029173228041323569 -0.034797076132153257 0 -0.029408684908348661 -0.034690206494143574 0 -0.030043890984479165 -0.035162824676613434 0 -0.029537527698164028 -0.034760352187438545 0 -0.029462661266819123 -0.034722476943178419 0 -0.030903504096319458 -0.035430261429692168 0 -0.029408684908348661 -0.034690206494143574 0 -0.032029247586537649 -0.034331141573260032 0 -0.032187312179480398 -0.034989092334478368 0 -0.029462661266819123 -0.034722476943178419 0 -0.030903504096319458 -0.035430261429692168 0 -0.030807664076295389 -0.035703630529587194 0 -0.033797879746704174 -0.033976106269913743 0 -0.034541739950652059 -0.032550578398603973 0 -0.033828885172712861 -0.03496190489361798 0 -0.033408547587243875 -0.03482319652439396 0 -0.033797879746704174 -0.033976106269913743 0 -0.033828885172712861 -0.03496190489361798 0 -0.030903504096319458 -0.035430261429692168 0 -0.030807664076295389 -0.035703630529587194 0 -0.031399969787806084 -0.035829092265286695 0 -0.030043890984479165 -0.035162824676613434 0 -0.030527989677862088 -0.035558517470738786 0 -0.029173228041323569 -0.034797076132153257 0 -0.029775159657339931 -0.035061559174757416 0 -0.029797149423785502 -0.035449196869938984 0 -0.029129988217596194 -0.034620422281714198 0 -0.02847521057019153 -0.034445711066425001 0 -0.028395081643682742 -0.033987439860681742 0 -0.029147088056747025 -0.034624004898701315 0 -0.029075210541279147 -0.034554808257449457 0 -0.029129988217596194 -0.034620422281714198 0 -0.029173228041323569 -0.034797076132153257 0 -0.029775159657339931 -0.035061559174757416 0 -0.030807664076295389 -0.035703630529587194 0 -0.031399969787806084 -0.035829092265286695 0 -0.031854214899099557 -0.035525616410489597 0 -0.033183451632151278 -0.035382671293865575 0 -0.033828885172712861 -0.03496190489361798 0 -0.031854214899099557 -0.035525616410489597 0 -0.032187312179480398 -0.034989092334478368 0 -0.03192874278654699 -0.035426752980300152 0 -0.033183451632151278 -0.035382671293865575 0 -0.033408547587243875 -0.03482319652439396 0 -0.033828885172712861 -0.03496190489361798 0 -0.032902668278361975 -0.035280907790413388 0 -0.032163891012581734 -0.034999441863128436 0 -0.031854214899099557 -0.035525616410489597 0 -0.032902668278361975 -0.035280907790413388 0 -0.033183451632151278 -0.035382671293865575 0 -0.031854214899099557 -0.035525616410489597 0 -0.030527989677862088 -0.035558517470738786 0 -0.030287493734463707 -0.034999970546271499 0 -0.032163891012581734 -0.034999441863128436 0 -0.031854214899099557 -0.035525616410489597 0 -0.030287961766374008 -0.034999992783885811 0 -0.031399969787806084 -0.035829092265286695 0 -0.031854214899099557 -0.035525616410489597 0 -0.030287961766374008 -0.034999992783885811 0 -0.029797149423785502 -0.035449196869938984 0 -0.030285740094591212 -0.035000127251415603 0 -0.029773376708143739 -0.035582299037169828 0 -0.030285740094591212 -0.035000127251415603 0 -0.028556540574608706 -0.034999655911775007 0 -0.029773376708143739 -0.035582299037169828 0 -0.028276453079340989 -0.034348194121096985 0 -0.027846568840330717 -0.034268246706214117 0 -0.02798592642607281 -0.033687781992653008 0 -0.028021626454674525 -0.033791054808102162 0 -0.028077680536902079 -0.033765386905388772 0 -0.028276453079340989 -0.034348194121096985 0 -0.028885495638311835 -0.034634407089967505 0 -0.028552165268187671 -0.0350001603734569 0 -0.027615997824916264 -0.034822756055237915 0 -0.027814250689038221 -0.034906210619877524 0 -0.028021626454674525 -0.033791054808102162 0 -0.028140997277536793 -0.033928795502475219 0 -0.028077680536902079 -0.033765386905388772 0 -0.027615997824916264 -0.034822756055237915 0 -0.027814250689038221 -0.034906210619877524 0 -0.027610341961793697 -0.0347834359843417 0 -0.027615997824916264 -0.034822756055237915 0 -0.027610341961793697 -0.0347834359843417 0 -0.027606808493949024 -0.034773284288184908 0 -0.029075210541279147 -0.034554808257449457 0 -0.028885495638311835 -0.034634407089967505 0 -0.028395081643682742 -0.033987439860681742 0 -0.028140997277536793 -0.033928795502475219 0 -0.028077680536902079 -0.033765386905388772 0 -0.029775159657339931 -0.035061559174757416 0 -0.029797149423785502 -0.035449196869938984 0 -0.029773376708143739 -0.035582299037169828 0 -0.028021626454674525 -0.033791054808102162 0 -0.028140997277536793 -0.033928795502475219 0 -0.028106843439003468 -0.034179285202594063 0 -0.026731417516590868 -0.034999947377013479 0 -0.027894472365291915 -0.035000034399137091 0 -0.026310712728480335 -0.036198321258016489 0 -0.027894115642060985 -0.035000034225905433 0 -0.026662838286111466 -0.035458644886517246 0 -0.027896115024706292 -0.034998930866228593 0 -0.027814250689038221 -0.034906210619877524 0 -0.027027113174504555 -0.034543152946359554 0 -0.028552165268187671 -0.0350001603734569 0 -0.027896115024706292 -0.034998930866228593 0 -0.027814250689038221 -0.034906210619877524 0 -0.027814250689038221 -0.034906210619877524 0 -0.027610341961793697 -0.0347834359843417 0 -0.027291257181391654 -0.034761015713856223 0 -0.027814250689038221 -0.034906210619877524 0 -0.027027113174504555 -0.034543152946359554 0 -0.027291257181391654 -0.034761015713856223 0 -0.027027113174504555 -0.034543152946359554 0 -0.027291257181391654 -0.034761015713856223 0 -0.026670273287063517 -0.034788067356473676 0 -0.02696094043144329 -0.034894831138416599 0 -0.026670273287063517 -0.034788067356473676 0 -0.02651750961141509 -0.035078203502315428 0 -0.027291257181391654 -0.034761015713856223 0 -0.02696094043144329 -0.034894831138416599 0 -0.026670273287063517 -0.034788067356473676 0 -0.027610341961793697 -0.0347834359843417 0 -0.027291257181391654 -0.034761015713856223 0 -0.027328600587594915 -0.034840734599939804 0 -0.027291257181391654 -0.034761015713856223 0 -0.02696094043144329 -0.034894831138416599 0 -0.027328600587594915 -0.034840734599939804 0 -0.027610341961793697 -0.0347834359843417 0 -0.027328600587594915 -0.034840734599939804 0 -0.027561569851739891 -0.034778679914005101 0 -0.02720991385796941 -0.035040451674965896 0 -0.026900692371025638 -0.035065037022858521 0 -0.026816513685623541 -0.035327506915364459 0 -0.027328600587594915 -0.034840734599939804 0 -0.02720991385796941 -0.035040451674965896 0 -0.026900692371025638 -0.035065037022858521 0 -0.027328600587594915 -0.034840734599939804 0 -0.02720991385796941 -0.035040451674965896 0 -0.027528557668061782 -0.034838988274932772 0 -0.026900692371025638 -0.035065037022858521 0 -0.02651750961141509 -0.035078203502315428 0 -0.026372078164937775 -0.035396862952336669 0 -0.02696094043144329 -0.034894831138416599 0 -0.027328600587594915 -0.034840734599939804 0 -0.026900692371025638 -0.035065037022858521 0 -0.02696094043144329 -0.034894831138416599 0 -0.026900692371025638 -0.035065037022858521 0 -0.02651750961141509 -0.035078203502315428 0 -0.02847521057019153 -0.034445711066425001 0 -0.028395081643682742 -0.033987439860681742 0 -0.028106843439003468 -0.034179285202594063 0 -0.028395081643682742 -0.033987439860681742 0 -0.028140997277536793 -0.033928795502475219 0 -0.028106843439003468 -0.034179285202594063 0 -0.027846568840330717 -0.034268246706214117 0 -0.027926409457745917 -0.034486900338915591 0 -0.027684304769586103 -0.03471400346771563 0 -0.027606808493949024 -0.034773284288184908 0 -0.027561569851739891 -0.034778679914005101 0 -0.027615997824916264 -0.034822756055237915 0 -0.027684304769586103 -0.03471400346771563 0 -0.027606808493949024 -0.034773284288184908 0 -0.027610341961793697 -0.0347834359843417 0 -0.027606808493949024 -0.034773284288184908 0 -0.027561569851739891 -0.034778679914005101 0 -0.027328600587594915 -0.034840734599939804 0 -0.027561569851739891 -0.034778679914005101 0 -0.027528557668061782 -0.034838988274932772 0 -0.027684304769586103 -0.03471400346771563 0 -0.027561569851739891 -0.034778679914005101 0 -0.027528557668061782 -0.034838988274932772 0 -0.027684304769586103 -0.03471400346771563 0 -0.027528557668061782 -0.034838988274932772 0 -0.027701774676878756 -0.034891487853513543 0 -0.02720991385796941 -0.035040451674965896 0 -0.027528557668061782 -0.034838988274932772 0 -0.027462810864089159 -0.035022356774203331 0 -0.027528557668061782 -0.034838988274932772 0 -0.027462810864089159 -0.035022356774203331 0 -0.027701774676878756 -0.034891487853513543 0 -0.027926409457745917 -0.034486900338915591 0 -0.02820859141583712 -0.034896549470286871 0 -0.027684304769586103 -0.03471400346771563 0 -0.027701774676878756 -0.034891487853513543 0 -0.028238490565698545 -0.034893299580605858 0 -0.02847521057019153 -0.034445711066425001 0 -0.028106843439003468 -0.034179285202594063 0 -0.028238490565698545 -0.034893299580605858 0 -0.028238490565698545 -0.034893299580605858 0 -0.027642985887206623 -0.035157941624611562 0 -0.028023048979399005 -0.035375330997284446 0 -0.027701774676878756 -0.034891487853513543 0 -0.028238490565698545 -0.034893299580605858 0 -0.027642985887206623 -0.035157941624611562 0 -0.027642985887206623 -0.035157941624611562 0 -0.027287767542219205 -0.035539671362636929 0 -0.027184200988468191 -0.035271402687919874 0 -0.027462810864089159 -0.035022356774203331 0 -0.027701774676878756 -0.034891487853513543 0 -0.027642985887206623 -0.035157941624611562 0 -0.027462810864089159 -0.035022356774203331 0 -0.027642985887206623 -0.035157941624611562 0 -0.027184200988468191 -0.035271402687919874 0 -0.02720991385796941 -0.035040451674965896 0 -0.027462810864089159 -0.035022356774203331 0 -0.027184200988468191 -0.035271402687919874 0 -0.027642985887206623 -0.035157941624611562 0 -0.027287767542219205 -0.035539671362636929 0 -0.028023048979399005 -0.035375330997284446 0 -0.027287767542219205 -0.035539671362636929 0 -0.028023048979399005 -0.035375330997284446 0 -0.027668077112138194 -0.035741439936823938 0 -0.026900692371025638 -0.035065037022858521 0 -0.026816513685623541 -0.035327506915364459 0 -0.026372078164937775 -0.035396862952336669 0 -0.026816513685623541 -0.035327506915364459 0 -0.026382621447114979 -0.035637720681558828 0 -0.026372078164937775 -0.035396862952336669 0 -0.026816513685623541 -0.035327506915364459 0 -0.027184200988468191 -0.035271402687919874 0 -0.026775305774811877 -0.035594627267652508 0 -0.02720991385796941 -0.035040451674965896 0 -0.026816513685623541 -0.035327506915364459 0 -0.027184200988468191 -0.035271402687919874 0 -0.027287767542219205 -0.035539671362636929 0 -0.027184200988468191 -0.035271402687919874 0 -0.026775305774811877 -0.035594627267652508 0 -0.026816513685623541 -0.035327506915364459 0 -0.026775305774811877 -0.035594627267652508 0 -0.026382621447114979 -0.035637720681558828 0 -0.026775305774811877 -0.035594627267652508 0 -0.026382621447114979 -0.035637720681558828 0 -0.026398412247339575 -0.035835836606221597 0 -0.026382621447114979 -0.035637720681558828 0 -0.026398412247339575 -0.035835836606221597 0 -0.026062730991906417 -0.035841305029139417 0 -0.026398412247339575 -0.035835836606221597 0 -0.026062730991906417 -0.035841305029139417 0 -0.025944691712119473 -0.035909665618776287 0 -0.026775305774811877 -0.035594627267652508 0 -0.026398412247339575 -0.035835836606221597 0 -0.026981131590238114 -0.035903466029431425 0 -0.027287767542219205 -0.035539671362636929 0 -0.026775305774811877 -0.035594627267652508 0 -0.026981131590238114 -0.035903466029431425 0 -0.026398412247339575 -0.035835836606221597 0 -0.026281967946847569 -0.035956131460763929 0 -0.026981131590238114 -0.035903466029431425 0 -0.026281967946847569 -0.035956131460763929 0 -0.026981131590238114 -0.035903466029431425 0 -0.026922877920202936 -0.036204270941154339 0 -0.026398412247339575 -0.035835836606221597 0 -0.026281967946847569 -0.035956131460763929 0 -0.025944691712119473 -0.035909665618776287 0 -0.027668077112138194 -0.035741439936823938 0 -0.026981131590238114 -0.035903466029431425 0 -0.027866060526809643 -0.036142801947624592 0 -0.027287767542219205 -0.035539671362636929 0 -0.027668077112138194 -0.035741439936823938 0 -0.026981131590238114 -0.035903466029431425 0 -0.026981131590238114 -0.035903466029431425 0 -0.027866060526809643 -0.036142801947624592 0 -0.026922877920202936 -0.036204270941154339 0 -0.029843259851256559 -0.023487447537902804 0 -0.03044908500509922 -0.024000471566011976 0 -0.029720692083007778 -0.024498198178008867 0 -0.028931122780539428 -0.029798743176728152 0 -0.028119585751145079 -0.030235859791602739 0 -0.029843259851256559 -0.023487447537902804 0 -0.031102439123231837 -0.02245800772025984 0 -0.03044908500509922 -0.024000471566011976 0 -0.027668077112138194 -0.035741439936823938 0 -0.027866060526809643 -0.036142801947624592 0 -0.028877447811274562 -0.035762166726015468 0 -0.028931122780539428 -0.029798743176728152 0 -0.029735983047475885 -0.028996150401120656 0 -0.031102439123231837 -0.02245800772025984 0 -0.031984221476892061 -0.022931853137722554 0 -0.031594789346724654 -0.023718171671556557 0 -0.031102439123231837 -0.02245800772025984 0 -0.031984221476892061 -0.022931853137722554 0 -0.032293059751256091 -0.02167473290405612 0 -0.031102439123231837 -0.02245800772025984 0 -0.031594789346724654 -0.023718171671556557 0 -0.03044908500509922 -0.024000471566011976 0 -0.031984221476892061 -0.022931853137722554 0 -0.031594789346724654 -0.023718171671556557 0 -0.032466107799720999 -0.023602089800735276 0 -0.031594789346724654 -0.023718171671556557 0 -0.032466107799720999 -0.023602089800735276 0 -0.032229829888273338 -0.024374975134078582 0 -0.032466107799720999 -0.023602089800735276 0 -0.032992316008683568 -0.022934588044951201 0 -0.033561051671550331 -0.024253573106874825 0 -0.031984221476892061 -0.022931853137722554 0 -0.032466107799720999 -0.023602089800735276 0 -0.032992316008683568 -0.022934588044951201 0 -0.034999984960338154 -0.027217728100343428 0 -0.036157554697618194 -0.027439039078506706 0 -0.035584877078898049 -0.025644454346951489 0 -0.032992316008683568 -0.022934588044951201 0 -0.033985177395472493 -0.024277941059017788 0 -0.033561051671550331 -0.024253573106874825 0 -0.034699882861062341 -0.024344192262357268 0 -0.034823873516130352 -0.025153593915378029 0 -0.034999984960338154 -0.027217728100343428 0 -0.036157554697618194 -0.027439039078506706 0 -0.035858672683137319 -0.028524773160634825 0 -0.034999984960338154 -0.027217728100343428 0 -0.034999977225609193 -0.028905213282476857 0 -0.035858672683137319 -0.028524773160634825 0 -0.036157554697618194 -0.027439039078506706 0 -0.036721035881602429 -0.02924601602997793 0 -0.035858672683137319 -0.028524773160634825 0 -0.034699882861062341 -0.024344192262357268 0 -0.032749475762654578 -0.029718031357038131 0 -0.031984221476892061 -0.022931853137722554 0 -0.032992316008683568 -0.022934588044951201 0 -0.032293059751256091 -0.02167473290405612 0 -0.036721035881602429 -0.02924601602997793 0 -0.035858672683137319 -0.028524773160634825 0 -0.035864452585196542 -0.029915654691938881 0 -0.034999977225609193 -0.028905213282476857 0 -0.035858672683137319 -0.028524773160634825 0 -0.035864452585196542 -0.029915654691938881 0 -0.034999977225609193 -0.028905213282476857 0 -0.035864452585196542 -0.029915654691938881 0 -0.034999991442253013 -0.030592672259338455 0 -0.034170279910041602 -0.031649289654722745 0 -0.0341713498116318 -0.031519649391521985 0 -0.034999177265601721 -0.030595853372087794 0 -0.035212037178191991 -0.030489589310524555 0 -0.034999759927408058 -0.030592991474573315 0 -0.034541739950652059 -0.032550578398603973 0 -0.034307761118297364 -0.031263773747024576 0 -0.034144222023592567 -0.031915147925976398 0 -0.032029247586537649 -0.034331141573260032 0 -0.032749475762654578 -0.029718031357038131 0 -0.034307761118297364 -0.031263773747024576 0 -0.034170279910041602 -0.031649289654722745 0 -0.034144222023592567 -0.031915147925976398 0 -0.032749475762654578 -0.029718031357038131 0 -0.035212037178191991 -0.030489589310524555 0 -0.034170279910041602 -0.031649289654722745 0 -0.0341713498116318 -0.031519649391521985 0 -0.034144222023592567 -0.031915147925976398 0 -0.033913460357815117 -0.032557207554145082 0 -0.0341713498116318 -0.031519649391521985 0 -0.034144222023592567 -0.031915147925976398 0 -0.029462661266819123 -0.034722476943178419 0 -0.029733145740977657 -0.0351771941591629 0 -0.029408684908348661 -0.034690206494143574 0 -0.029733145740977657 -0.0351771941591629 0 -0.029408684908348661 -0.034690206494143574 0 -0.02922100761584754 -0.03510101960889897 0 -0.02922100761584754 -0.03510101960889897 0 -0.028938755816639277 -0.034872527515761864 0 -0.028693721176835878 -