<?xml version="1.0"?>
<VTKFile type="UnstructuredGrid" version="0.1" byte_order="LittleEndian">
<UnstructuredGrid>
<Piece NumberOfPoints="31246" NumberOfCells="11002">
<Points>
<DataArray type="Float64" NumberOfComponents="3" format="ascii">
-0.50000000000000122 -0.48626226177556231 0 -0.5 -0.5 0 -0.47744677215909281 -0.48586902102723523 0 -0.5 -0.5 0 -0.47744677215909281 -0.48586902102723523 0 -0.43703850519391679 -0.50000000000000278 0 -0.50000000000000122 -0.48626226177556231 0 -0.47744677215909281 -0.48586902102723523 0 -0.50000000000000122 -0.48626226177556231 0 -0.48837032897421379 -0.47833512104644849 0 -0.47744677215909281 -0.48586902102723523 0 -0.50000000000000122 -0.48626226177556231 0 -0.49146454090854219 -0.4689652822595915 0 -0.5 -0.45947040656488303 0 -0.50000000000000122 -0.48626226177556231 0 -0.48837032897421379 -0.47833512104644849 0 -0.49146454090854219 -0.4689652822595915 0 -0.48837032897421379 -0.47833512104644849 0 -0.49146454090854219 -0.4689652822595915 0 -0.48021754227705432 -0.46921944800154552 0 -0.48837032897421379 -0.47833512104644849 0 -0.48021754227705432 -0.46921944800154552 0 -0.47744677215909281 -0.48586902102723523 0 -0.48021754227705432 -0.46921944800154552 0 -0.47744677215909281 -0.48586902102723523 0 -0.46669504855264982 -0.47411166219005851 0 -0.47744677215909281 -0.48586902102723523 0 -0.45489354431818457 -0.48547578027890798 0 -0.47744677215909281 -0.48586902102723523 0 -0.45489354431818457 -0.48547578027890798 0 -0.43703850519391679 -0.50000000000000278 0 -0.47744677215909281 -0.48586902102723523 0 -0.45489354431818457 -0.48547578027890798 0 -0.46669504855264982 -0.47411166219005851 0 -0.45489354431818457 -0.48547578027890798 0 -0.46669504855264982 -0.47411166219005851 0 -0.45579808238157821 -0.47072871740384009 0 -0.45489354431818457 -0.48547578027890798 0 -0.44201605671313399 -0.47822975049830801 0 -0.43234031647727622 -0.48508253953058089 0 -0.45489354431818457 -0.48547578027890798 0 -0.44755174516591978 -0.47302044260482001 0 -0.44201605671313399 -0.47822975049830801 0 -0.45489354431818457 -0.48547578027890798 0 -0.45579808238157821 -0.47072871740384009 0 -0.44755174516591978 -0.47302044260482001 0 -0.45579808238157821 -0.47072871740384009 0 -0.44755174516591978 -0.47302044260482001 0 -0.44150376996323493 -0.4669915145680098 0 -0.44118509719073001 -0.47397445435401558 0 -0.44150376996323493 -0.4669915145680098 0 -0.43366881692063142 -0.47765610974492489 0 -0.44755174516591978 -0.47302044260482001 0 -0.44118509719073001 -0.47397445435401558 0 -0.44150376996323493 -0.4669915145680098 0 -0.44755174516591978 -0.47302044260482001 0 -0.44118509719073001 -0.47397445435401558 0 -0.44201605671313399 -0.47822975049830801 0 -0.44118509719073001 -0.47397445435401558 0 -0.44201605671313399 -0.47822975049830801 0 -0.43366881692063142 -0.47765610974492489 0 -0.45489354431818457 -0.48547578027890798 0 -0.43234031647727622 -0.48508253953058089 0 -0.43703850519391679 -0.50000000000000278 0 -0.45489354431818457 -0.48547578027890798 0 -0.43234031647727622 -0.48508253953058089 0 -0.44664769923267927 -0.45303951004926701 0 -0.45038812783291587 -0.4394282604525962 0 -0.43664419314036101 -0.43620938163177569 0 -0.44664769923267927 -0.45303951004926701 0 -0.43664419314036101 -0.43620938163177569 0 -0.43399900571453209 -0.45178150049850879 0 -0.44664769923267927 -0.45303951004926701 0 -0.4370815665284552 -0.46337550336760891 0 -0.43399900571453209 -0.45178150049850879 0 -0.44664769923267927 -0.45303951004926701 0 -0.45805437768563673 -0.45314318602980719 0 -0.4370815665284552 -0.46337550336760891 0 -0.45805437768563673 -0.45314318602980719 0 -0.4370815665284552 -0.46337550336760891 0 -0.44150376996323493 -0.4669915145680098 0 -0.45805437768563673 -0.45314318602980719 0 -0.4370815665284552 -0.46337550336760891 0 -0.44150376996323493 -0.4669915145680098 0 -0.46511930162733889 -0.45926534423876397 0 -0.44150376996323493 -0.4669915145680098 0 -0.45805437768563673 -0.45314318602980719 0 -0.46511930162733889 -0.45926534423876397 0 -0.45579808238157821 -0.47072871740384009 0 -0.44150376996323493 -0.4669915145680098 0 -0.46511930162733889 -0.45926534423876397 0 -0.46669504855264982 -0.47411166219005851 0 -0.45579808238157821 -0.47072871740384009 0 -0.46511930162733889 -0.45926534423876397 0 -0.45805437768563673 -0.45314318602980719 0 -0.46511930162733889 -0.45926534423876397 0 -0.47902718884281831 -0.44291086869200552 0 -0.45805437768563673 -0.45314318602980719 0 -0.47902718884281831 -0.44291086869200552 0 -0.45805437768563673 -0.45314318602980719 0 -0.46443179948845359 -0.43800270507739131 0 -0.47902718884281831 -0.44291086869200552 0 -0.44664769923267927 -0.45303951004926701 0 -0.45038812783291587 -0.4394282604525962 0 -0.46443179948845359 -0.43800270507739131 0 -0.44664769923267927 -0.45303951004926701 0 -0.46443179948845359 -0.43800270507739131 0 -0.44664769923267927 -0.45303951004926701 0 -0.45805437768563673 -0.45314318602980719 0 -0.46443179948845359 -0.43800270507739131 0 -0.46511930162733889 -0.45926534423876397 0 -0.47902718884281831 -0.44291086869200552 0 -0.4887348332914429 -0.45153917390951809 0 -0.48021754227705432 -0.46921944800154552 0 -0.46511930162733889 -0.45926534423876397 0 -0.4887348332914429 -0.45153917390951809 0 -0.46511930162733889 -0.45926534423876397 0 -0.4887348332914429 -0.45153917390951809 0 -0.48021754227705432 -0.46921944800154552 0 -0.46669504855264982 -0.47411166219005851 0 -0.46511930162733889 -0.45926534423876397 0 -0.49146454090854219 -0.4689652822595915 0 -0.5 -0.45947040656488303 0 -0.4887348332914429 -0.45153917390951809 0 -0.49146454090854219 -0.4689652822595915 0 -0.48021754227705432 -0.46921944800154552 0 -0.4887348332914429 -0.45153917390951809 0 -0.47902718884281831 -0.44291086869200552 0 -0.49999999999999978 -0.43267855135420391 0 -0.5 -0.45947040656488303 0 -0.4887348332914429 -0.45153917390951809 0 -0.49999999999999978 -0.43267855135420391 0 -0.47902718884281831 -0.44291086869200552 0 -0.4887348332914429 -0.45153917390951809 0 -0.49999999999999978 -0.43267855135420391 0 -0.47902718884281831 -0.44291086869200552 0 -0.49999999999999978 -0.43267855135420391 0 -0.48221589974422779 -0.42296590010551549 0 -0.49999999999999978 -0.43267855135420391 0 -0.50000000000000155 -0.40792909513363901 0 -0.48221589974422779 -0.42296590010551549 0 -0.50000000000000155 -0.40792909513363901 0 -0.47888139771345339 -0.41656785451713441 0 -0.50000000000000155 -0.40792909513363901 0 -0.47888139771345339 -0.41656785451713441 0 -0.48221589974422779 -0.42296590010551549 0 -0.50000000000000155 -0.40792909513363901 0 -0.48221589974422779 -0.42296590010551549 0 -0.50000000000000155 -0.40792909513363901 0 -0.47888139771345339 -0.41656785451713441 0 -0.48523795207419068 -0.40261987222061291 0 -0.47888139771345339 -0.41656785451713441 0 -0.47060689193340433 -0.42576656779493222 0 -0.48221589974422779 -0.42296590010551549 0 -0.47888139771345339 -0.41656785451713441 0 -0.48523795207419068 -0.40261987222061291 0 -0.47329317342806781 -0.40581336687804759 0 -0.47888139771345339 -0.41656785451713441 0 -0.47329317342806781 -0.40581336687804759 0 -0.46810494572993111 -0.41519780141367668 0 -0.46443179948845359 -0.43800270507739131 0 -0.48221589974422779 -0.42296590010551549 0 -0.46443179948845359 -0.43800270507739131 0 -0.47060689193340433 -0.42576656779493222 0 -0.48221589974422779 -0.42296590010551549 0 -0.46443179948845359 -0.43800270507739131 0 -0.47902718884281831 -0.44291086869200552 0 -0.48221589974422779 -0.42296590010551549 0 -0.47888139771345339 -0.41656785451713441 0 -0.47060689193340433 -0.42576656779493222 0 -0.45776279542690718 -0.42638861807445511 0 -0.5 -0.38187796089046422 0 -0.50000000000000144 -0.39849265348142099 0 -0.48211600502069152 -0.3760246097946216 0 -0.50000000000000144 -0.39849265348142099 0 -0.48211600502069152 -0.3760246097946216 0 -0.50000000000000144 -0.39849265348142099 0 -0.48523795207419068 -0.40261987222061291 0 -0.48211600502069152 -0.3760246097946216 0 -0.50000000000000155 -0.40792909513363901 0 -0.50000000000000144 -0.39849265348142099 0 -0.48523795207419068 -0.40261987222061291 0 -0.48523795207419068 -0.40261987222061291 0 -0.47329317342806781 -0.40581336687804759 0 -0.47128289689518682 -0.38940204097588438 0 -0.48523795207419068 -0.40261987222061291 0 -0.48211600502069152 -0.3760246097946216 0 -0.47128289689518682 -0.38940204097588438 0 -0.48211600502069152 -0.3760246097946216 0 -0.47128289689518682 -0.38940204097588438 0 -0.46272413438504778 -0.37197463574957518 0 -0.45666452308407002 -0.38403218141984879 0 -0.46272413438504778 -0.37197463574957518 0 -0.4468028840339533 -0.37260501215794462 0 -0.47128289689518682 -0.38940204097588438 0 -0.45666452308407002 -0.38403218141984879 0 -0.46272413438504778 -0.37197463574957518 0 -0.47329317342806781 -0.40581336687804759 0 -0.47128289689518682 -0.38940204097588438 0 -0.45802941365459171 -0.39913142839865517 0 -0.47128289689518682 -0.38940204097588438 0 -0.45666452308407002 -0.38403218141984879 0 -0.45802941365459171 -0.39913142839865517 0 -0.47329317342806781 -0.40581336687804759 0 -0.45802941365459171 -0.39913142839865517 0 -0.4624824163512955 -0.41202136618506952 0 -0.44099050176866039 -0.40146257059613788 0 -0.44448328645156998 -0.38704778981718452 0 -0.42826734873076489 -0.39057865011278309 0 -0.45802941365459171 -0.39913142839865517 0 -0.44099050176866039 -0.40146257059613788 0 -0.44448328645156998 -0.38704778981718452 0 -0.45802941365459171 -0.39913142839865517 0 -0.44099050176866039 -0.40146257059613788 0 -0.45070919959982558 -0.41340366927254929 0 -0.44448328645156998 -0.38704778981718452 0 -0.4468028840339533 -0.37260501215794462 0 -0.43074289611824362 -0.37317088890264333 0 -0.45666452308407002 -0.38403218141984879 0 -0.45802941365459171 -0.39913142839865517 0 -0.44448328645156998 -0.38704778981718452 0 -0.45666452308407002 -0.38403218141984879 0 -0.44448328645156998 -0.38704778981718452 0 -0.4468028840339533 -0.37260501215794462 0 -0.45038812783291587 -0.4394282604525962 0 -0.46443179948845359 
[...]
<PointData Scalars="" Vectors="displacement," Tensors="">
<DataArray type="Float64" Name="displacement" NumberOfComponents="3" format="ascii">
9.9964945684364986e-07 -0.034042327963028939 0 -6.5237256791710725e-07 -0.034997626220729716 0 -2.1661703460198666e-05 -0.034943908951252371 0 -6.5237256791710725e-07 -0.034997626220729716 0 -2.1661703460198666e-05 -0.034943908951252371 0 1.2828599316116116e-07 -0.03500035994934126 0 -1.252867119985155e-08 -0.034038272331270034 0 -6.0365312541842222e-05 -0.033852446773527251 0 4.8851799733059878e-07 -0.034035878355146709 0 -0.00011842614110591925 -0.033046886987324109 0 -6.51604884383916e-05 -0.032695887828727371 0 4.8851799733059878e-07 -0.034035878355146709 0 -8.8555932759139507e-05 -0.032671578499498484 0 -3.8639821319154109e-07 -0.032162870215862262 0 4.8851799733059878e-07 -0.034035878355146709 0 -0.00011842614110591925 -0.033046886987324109 0 -8.8555932759139507e-05 -0.032671578499498484 0 -0.00011842614110591925 -0.033046886987324109 0 -8.8555932759139507e-05 -0.032671578499498484 0 -7.4977868051657421e-05 -0.032668550474949348 0 -0.00011842614110591925 -0.033046886987324109 0 -7.4977868051657421e-05 -0.032668550474949348 0 -6.51604884383916e-05 -0.032695887828727371 0 -7.4977868051657421e-05 -0.032668550474949348 0 -6.51604884383916e-05 -0.032695887828727371 0 -6.7686444165882526e-06 -0.033008121064390904 0 -6.0365312541842222e-05 -0.033852446773527251 0 -0.00019863226973480688 -0.034225643843143347 0 -2.1661703460198666e-05 -0.034943908951252371 0 -4.1936860711401219e-05 -0.034981591999785511 0 1.2828599316116116e-07 -0.03500035994934126 0 -6.51604884383916e-05 -0.032695887828727371 0 -0.00039388117832857495 -0.033454264240053697 0 -6.7686444165882526e-06 -0.033008121064390904 0 -0.00039388117832857495 -0.033454264240053697 0 -6.7686444165882526e-06 -0.033008121064390904 0 0.00014551052736835952 -0.033459685250461897 0 -0.00039388117832857495 -0.033454264240053697 0 -3.5100932702143844e-05 -0.034132204977860521 0 -0.00023352992631414332 -0.034688358344314822 0 -0.00039388117832857495 -0.033454264240053697 0 0.00012809093798207596 -0.033841817026605069 0 -3.5100932702143844e-05 -0.034132204977860521 0 -0.00039388117832857495 -0.033454264240053697 0 0.00014551052736835952 -0.033459685250461897 0 0.00012809093798207596 -0.033841817026605069 0 0.00014551052736835952 -0.033459685250461897 0 0.00012809093798207596 -0.033841817026605069 0 0.00041091866289044335 -0.03411633713248937 0 0.00012485313433377172 -0.03415278613076287 0 0.00041091866289044335 -0.03411633713248937 0 -2.4697396755361798e-06 -0.034516738927752005 0 0.00012809093798207596 -0.033841817026605069 0 0.00012485313433377172 -0.03415278613076287 0 0.00041091866289044335 -0.03411633713248937 0 0.00012809093798207596 -0.033841817026605069 0 0.00012485313433377172 -0.03415278613076287 0 -3.5100932702143844e-05 -0.034132204977860521 0 0.00012485313433377172 -0.03415278613076287 0 -3.5100932702143844e-05 -0.034132204977860521 0 -2.4697396755361798e-06 -0.034516738927752005 0 -4.1936860711401219e-05 -0.034981591999785511 0 -0.00023352992631414332 -0.034688358344314822 0 1.2828599316116116e-07 -0.03500035994934126 0 -0.00019863226973480688 -0.034225643843143347 0 -0.00023219717065306304 -0.034627679905899253 0 0.0016415856663155224 -0.026608167175799061 0 0.0010762702111284761 -0.026653822116527955 0 0.00096674362443039199 -0.025836529506999231 0 0.0016415856663155224 -0.026608167175799061 0 0.00096674362443039199 -0.025836529506999231 0 0.0015824401027235363 -0.02592470098633844 0 0.0016415856663155224 -0.026608167175799061 0 0.0021056194844955266 -0.026179897413970237 0 0.0015824401027235363 -0.02592470098633844 0 0.0016415856663155224 -0.026608167175799061 0 0.0016765397064766997 -0.027378216859085827 0 0.0021056194844955266 -0.026179897413970237 0 0.0011505170635379095 -0.028218053549537533 0 0.0020238688500366516 -0.026339819884487678 0 0.002455943922125438 -0.026636278111514023 0 0.00054669533870939965 -0.029089665682979399 0 0.0021056194844955266 -0.026179897413970237 0 0.0015711141029132311 -0.0300152464835741 0 0.0007549239555871423 -0.031601437167161364 0 0.002455943922125438 -0.026636278111514023 0 0.00054669533870939965 -0.029089665682979399 0 0.0012755064708028826 -0.030013264915252792 0 0.00014551052736835952 -0.033459685250461897 0 0.00041091866289044335 -0.03411633713248937 0 0.00038107220498163864 -0.0330599386974944 0 -6.7686444165882526e-06 -0.033008121064390904 0 0.00014551052736835952 -0.033459685250461897 0 0.00038107220498163864 -0.0330599386974944 0 0.00054669533870939965 -0.029089665682979399 0 0.0012755064708028826 -0.030013264915252792 0 -0.00015385079099914016 -0.031407852900495456 0 0.0011505170635379095 -0.028218053549537533 0 0.00035202930352604643 -0.030145996180243374 0 0.0016765397064766997 -0.027378216859085827 0 0.0005771149040400454 -0.027945875756884144 0 0.00090780658378978414 -0.029053497381189269 0 0.0016415856663155224 -0.026608167175799061 0 0.0010762702111284761 -0.026653822116527955 0 0.0009901276241671838 -0.027281655098883889 0 0.0015808939105554662 -0.026673042583668597 0 0.0008163941138321256 -0.02760316600684759 0 0.0016415856663155224 -0.026608167175799061 0 0.0016765397064766997 -0.027378216859085827 0 0.0005771149040400454 -0.027945875756884144 0 0.0012755064708028826 -0.030013264915252792 0 -0.00015385079099914016 -0.031407852900495456 0 0.00011453999033101174 -0.031876730763767895 0 -7.4977868051657421e-05 -0.032668550474949348 0 0.00038107220498163864 -0.0330599386974944 0 0.00011453999033101174 -0.031876730763767895 0 0.0007549239555871423 -0.031601437167161364 0 0.00024908852880173668 -0.031858393830766295 0 -7.4977868051657421e-05 -0.032668550474949348 0 -6.7686444165882526e-06 -0.033008121064390904 0 0.00038107220498163864 -0.0330599386974944 0 -8.8555932759139507e-05 -0.032671578499498484 0 -3.8639821319154109e-07 -0.032162870215862262 0 0.00011453999033101174 -0.031876730763767895 0 -8.8555932759139507e-05 -0.032671578499498484 0 -7.4977868051657421e-05 -0.032668550474949348 0 0.00011453999033101174 -0.031876730763767895 0 0.00035202930352604643 -0.030145996180243374 0 1.1416354699027208e-07 -0.030287619303237097 0 -3.8639821319154109e-07 -0.032162870215862262 0 0.00011453999033101174 -0.031876730763767895 0 5.6294767175489944e-07 -0.030290126484470027 0 -0.00015385079099914016 -0.031407852900495456 0 0.00011453999033101174 -0.031876730763767895 0 5.6294767175489944e-07 -0.030290126484470027 0 0.00090780658378978414 -0.029053497381189269 0 7.9053550484592496e-07 -0.030283641649423772 0 -0.00023657969651120976 -0.029337722302362639 0 7.9053550484592496e-07 -0.030283641649423772 0 -7.8935481346616035e-07 -0.028558712720545918 0 -0.00023657969651120976 -0.029337722302362639 0 -0.00011788674434348305 -0.028630592214206312 0 0.00044106366568959655 -0.027396130862220893 0 -0.00030951754121006855 -0.028798180829790347 0 3.8697827925375981e-05 -0.027927187488061996 0 0.00030415158754568513 -0.028071228658236223 0 -0.00011788674434348305 -0.028630592214206312 0 2.1407990707295017e-05 -0.028667871719913536 0 2.2942841123166368e-06 -0.028551539107317676 0 0.00092711990382919 -0.026817520843950015 0 0.00011556498290411542 -0.027273415623824234 0 3.8697827925375981e-05 -0.027927187488061996 0 0.00043031747687706523 -0.027562097910443305 0 0.00030415158754568513 -0.028071228658236223 0 0.00092711990382919 -0.026817520843950015 0 0.00011556498290411542 -0.027273415623824234 0 0.00038844499173876744 -0.026568469656352008 0 0.00092711990382919 -0.026817520843950015 0 0.00038844499173876744 -0.026568469656352008 0 0.00075147592513236496 -0.02636468788306991 0 0.0008163941138321256 -0.02760316600684759 0 2.1407990707295017e-05 -0.028667871719913536 0 0.0009901276241671838 -0.027281655098883889 0 0.00043031747687706523 -0.027562097910443305 0 0.00030415158754568513 -0.028071228658236223 0 0.0005771149040400454 -0.027945875756884144 0 0.00090780658378978414 -0.029053497381189269 0 -0.00023657969651120976 -0.029337722302362639 0 3.8697827925375981e-05 -0.027927187488061996 0 0.00043031747687706523 -0.027562097910443305 0 0.00044155958981531741 -0.027003962445379864 0 -1.9684651129741941e-07 -0.02673126602213825 0 2.4647146231839536e-07 -0.02789274587157798 0 -7.4859605266162246e-05 -0.026171796979174589 0 -2.9389994832726534e-07 -0.027893703898860516 0 -0.00024686247371758424 -0.026726131821899691 0 -1.7592150766794948e-06 -0.027897141015769383 0 0.00011556498290411542 -0.027273415623824234 0 -0.00050763802677707593 -0.026765296902615983 0 2.2942841123166368e-06 -0.028551539107317676 0 -1.7592150766794948e-06 -0.027897141015769383 0 0.00011556498290411542 -0.027273415623824234 0 0.00011556498290411542 -0.027273415623824234 0 0.00038844499173876744 -0.026568469656352008 0 -0.00010890463036587279 -0.026419180581627857 0 0.00011556498290411542 -0.027273415623824234 0 -0.00050763802677707593 -0.026765296902615983 0 -0.00010890463036587279 -0.026419180581627857 0 -0.00050763802677707593 -0.026765296902615983 0 -0.00010890463036587279 -0.026419180581627857 0 -0.00043374614310435247 -0.025912901412630581 0 -0.00013306265686081748 -0.025799939902381965 0 -0.00043374614310435247 -0.025912901412630581 0 -0.00031334793992254887 -0.025334090983043803 0 -0.00010890463036587279 -0.026419180581627857 0 -0.00013306265686081748 -0.025799939902381965 0 -0.00043374614310435247 -0.025912901412630581 0 0.00038844499173876744 -0.026568469656352008 0 -0.00010890463036587279 -0.026419180581627857 0 0.00024529932139997373 -0.025945684010488329 0 -0.00010890463036587279 -0.026419180581627857 0 -0.00013306265686081748 -0.025799939902381965 0 0.00024529932139997373 -0.025945684010488329 0 0.00038844499173876744 -0.026568469656352008 0 0.00024529932139997373 -0.025945684010488329 0 0.00062282570863613754 -0.026143805117488501 0 0.00031385667457000088 -0.025489759690733135 0 -1.6120981184439115e-05 -0.025443460420995292 0 8.0631755734098898e-05 -0.025098290913670548 0 0.00024529932139997373 -0.025945684010488329 0 0.00031385667457000088 -0.025489759690733135 0 -1.6120981184439115e-05 -0.025443460420995292 0 0.00024529932139997373 -0.025945684010488329 0 0.00031385667457000088 -0.025489759690733135 0 0.00063178283296893678 -0.025818147361692995 0 -1.6120981184439115e-05 -0.025443460420995292 0 -0.00031334793992254887 -0.025334090983043803 0 -0.000234763606109634 -0.024955391208000038 0 -0.00013306265686081748 -0.025799939902381965 0 0.00024529932139997373 -0.025945684010488329 0 -1.6120981184439115e-05 -0.025443460420995292 0 -0.00013306265686081748 -0.025799939902381965 0 -1.6120981184439115e-05 -0.025443460420995292 0 -0.00031334793992254887 -0.025334090983043803 0 0.0010762702111284761 -0.026653822116527955 0 0.0009901276241671838 -0.027281655098883889 0 0.00044155958981531741 -0.027003962445379864 0 0.0009901276241671838 -0.027281655098883889 0 0.00043031747687706523 -0.027562097910443305 0 0.00044155958981531741 -0.027003962445379864 0 0.00044106366568959655 -0.027396130862220893 0 0.00070962044754487833 -0.026495032300675618 0 0.00094373535606696987 -0.025966781563178411 0 0.00075147592513236496 -0.02636468788306991 0 0.00062282570863613754 -0.026143805117488501 0 0.00092711990382919 -0.026817520843950015 0 0.00094373535606696987 -0.025966781563178411 0 0.00075147592513236496 -0.02636468788306991 0 0.00038844499173876744 -0.026568469656352008 0 0.00075147592513236496 -0.02636468788306991 0 0.00062282570863613754 -0.026143805117488501 0 0.00024529932139997373 -0.025945684010488329 0 0.00062282570863613754 -0.026143805117488501 0 0.00063178283296893678 -0.025818147361692995 0 0.00094373535606696987 -0.025966781563178411 0 0.00062282570863613754 -0.026143805117488501 0 0.00063178283296893678 -0.025818147361692995 0 0.00094373535606696987 -0.025966781563178411 0 0.00063178283296893678 -0.025818147361692995 0 0.00077875650870925248 -0.025731008650086835 0 0.00031385667457000088 -0.025489759690733135 0 0.00063178283296893678 -0.025818147361692995 0 0.00056972583789429278 -0.025536958561692521 0 0.00063178283296893678 -0.025818147361692995 0 0.00056972583789429278 -0.025536958561692521 0 0.00077875650870925248 -0.025731008650086835 0 0.00070962044754487833 -0.026495032300675618 0 0.00094908389507169318 -0.025879297244670932 0 0.00094373535606696987 -0.025966781563178411 0 0.00077875650870925248 -0.025731008650086835 0 0.00096674362443039199 -0.025836529506999231 0 0.0010762702111284761 -0.026653822116527955 0 0.00044155958981531741 -0.027003962445379864 0 0.00096674362443039199 -0.025836529506999231 0 0.00096674362443039199 -0.025836529506999231 0 0.0006896049481022996 -0.025416724314609482 0 0.00094455066456302001 -0.025174462905206384 0 0.00077875650870925248 -0.025731008650086835 0 0.00096674362443039199 -0.025836529506999231 0 0.0006896049481022996 -0.025416724314609482 0 0.0006896049481022996 -0.025416724314609482 0 0.00049145844637759153 -0.024930530903529487 0 0.0003721475455844347 -0.025209485743313852 0 0.00056972583789429278 -0.025536958561692521 0 0.00077875650870925248 -0.025731008650086835 0 0.0006896049481022996 -0.025416724314609482 0 0.00056972583789429278 -0.025536958561692521 0 0.0006896049481022996 -0.025416724314609482 0 0.0003721475455844347 -0.025209485743313852 0 0.00031385667457000088 -0.025489759690733135 0 0.00056972583789429278 -0.025536958561692521 0 0.0003721475455844347 -0.025209485743313852 0 0.0006896049481022996 -0.025416724314609482 0 0.00049145844637759153 -0.024930530903529487 0 0.00094455066456302001 -0.025174462905206384 0 0.00049145844637759153 -0.024930530903529487 0 0.00094455066456302001 -0.025174462905206384 0 0.0007584291551756188 -0.024755979305599658 0 -1.6120981184439115e-05 -0.025443460420995292 0 8.0631755734098898e-05 -0.025098290913670548 0 -0.000234763606109634 -0.024955391208000038 0 8.0631755734098898e-05 -0.025098290913670548 0 -8.1345584280201845e-05 -0.024744743134844045 0 -0.000234763606109634 -0.024955391208000038 0 8.0631755734098898e-05 -0.025098290913670548 0 0.0003721475455844347 -0.025209485743313852 0 0.00016723495433256994 -0.024817951727992268 0 0.00031385667457000088 -0.025489759690733135 0 8.0631755734098898e-05 -0.025098290913670548 0 0.0003721475455844347 -0.025209485743313852 0 0.00049145844637759153 -0.024930530903529487 0 0.0003721475455844347 -0.025209485743313852 0 0.00016723495433256994 -0.024817951727992268 0 8.0631755734098898e-05 -0.025098290913670548 0 0.00016723495433256994 -0.024817951727992268 0 -8.1345584280201845e-05 -0.024744743134844045 0 0.00016723495433256994 -0.024817951727992268 0 -8.1345584280201845e-05 -0.024744743134844045 0 3.9224879158632758e-05 -0.024537598333920659 0 -8.1345584280201845e-05 -0.024744743134844045 0 3.9224879158632758e-05 -0.024537598333920659 0 -0.00013021948533639821 -0.024519773277402183 0 3.9224879158632758e-05 -0.024537598333920659 0 -0.00013021948533639821 -0.024519773277402183 0 -9.862895087806565e-05 -0.024366655368137775 0 0.00016723495433256994 -0.024817951727992268 0 3.9224879158632758e-05 -0.024537598333920659 0 0.00037967962266379532 -0.024530733851765744 0 0.00049145844637759153 -0.024930530903529487 0 0.00016723495433256994 -0.024817951727992268 0 0.00037967962266379532 -0.024530733851765744 0 3.9224879158632758e-05 -0.024537598333920659 0 6.7081810482625908e-05 -0.024347077391563249 0 0.00037967962266379532 -0.024530733851765744 0 6.7081810482625908e-05 -0.024347077391563249 0 0.00037967962266379532 -0.024530733851765744 0 0.00040112842147928257 -0.024256357740289832 0 3.9224879158632758e-05 -0.024537598333920659 0 6.7081810482625908e-05 -0.024347077391563249 0 -9.862895087806565e-05 -0.024366655368137775 0 0.0007584291551756188 -0.024755979305599658 0 0.00037967962266379532 -0.024530733851765744 0 0.00092162216089738491 -0.024422576053975475 0 0.00049145844637759153 -0.024930530903529487 0 0.0007584291551756188 -0.024755979305599658 0 0.00037967962266379532 -0.024530733851765744 0 0.00037967962266379532 -0.024530733851765744 0 0.00092162216089738491 -0.024422576053975475 0 0.00040112842147928257 -0.024256357740289832 0 -0.0013025800437407959 -0.033059651146599207 0 -0.00086825439584629471 -0.032690949611723315 0 -0.0014914388500113188 -0.032264680275626276 0 -0.00018264582514520384 -0.028786767137491773 0 -0.00087873586637208904 -0.028350935557689722 0 -0.0013025800437407959 -0.033059651146599207 0 -0.00056674101924063258 -0.033486717734899897 0 -0.00086825439584629471 -0.032690949611723315 0 0.0007584291551756188 -0.024755979305599658 0 0.00092162216089738491 -0.024422576053975475 0 0.0016017283001989848 -0.024733766018242516 0 -0.00018264582514520384 -0.028786767137491773 0 0.0005906973546666468 -0.028799965176183009 0 -0.00056674101924063258 -0.033486717734899897 0 -0.00018049733274668451 -0.033214772060034266 0 -0.00034479347827707276 -0.032860045468592926 0 -0.00056674101924063258 -0.033486717734899897 0 -0.00018049733274668451 -0.033214772060034266 0 4.5932753664477945e-06 -0.033856064634431637 0 -0.00056674101924063258 -0.033486717734899897 0 -0.00034479347827707276 -0.032860045468592926 0 -0.00086825439584629471 -0.032690949611723315 0 -0.00018049733274668451 -0.033214772060034266 0 -0.00034479347827707276 -0.032860045468592926 0 9.5008983277318002e-07 -0.032945854938378538 0 -0.00034479347827707276 -0.032860045468592926 0 9.5008983277318002e-07 -0.032945854938378538 0 -0.00011397839657720773 -0.032618938588254182 0 9.5008983277318002e-07 -0.032945854938378538 0 0.00021803719134966902 -0.033150502790471 0 0.00029719839210479772 -0.032855682372410412 0 -0.00018049733274668451 -0.033214772060034266 0 9.5008983277318002e-07 -0.032945854938378538 0 0.00021803719134966902 -0.033150502790471 0 -4.5873367117313535e-10 -0.034999992866731229 0 2.6736533770994557e-06 -0.034993633092705978 0 1.0595317607388177e-06 -0.034997437054259492 0 0.00021803719134966902 -0.033150502790471 0 0.00010033762246479188 -0.032955738990100465 0 0.00029719839210479772 -0.032855682372410412 0 -1.0029535235897687e-05 -0.034618335747403285 0 0.00010560978324759971 -0.033883757941342199 0 -4.5873367117313535e-10 -0.034999992866731229 0 2.6736533770994557e-06 -0.034993633092705978 0 7.513751111445818e-07 -0.034991104861314293 0 -4.5873367117313535e-10 -0.034999992866731229 0 1.6559973626501766e-09 -0.034999978181949783 0 7.513751111445818e-07 -0.034991104861314293 0 2.6736533770994557e-06 -0.034993633092705978 0 3.1792195504911537e-06 -0.034977922089690215 0 7.513751111445818e-07 -0.034991104861314293 0 -1.0029535235897687e-05 -0.034618335747403285 0 0.00025816797600896165 -0.031934622769246905 0 -0.00018049733274668451 -0.033214772060034266 0 0.00021803719134966902 -0.033150502790471 0 4.5932753664477945e-06 -0.033856064634431637 0 3.1792195504911537e-06 -0.034977922089690215 0 7.513751111445818e-07 -0.034991104861314293 0 1.1863452351824757e-06 -0.034992095972536282 0 1.6559973626501766e-09 -0.034999978181949783 0 7.513751111445818e-07 -0.034991104861314293 0 1.1863452351824757e-06 -0.034992095972536282 0 1.6559973626501766e-09 -0.034999978181949783 0 1.1863452351824757e-06 -0.034992095972536282 0 4.6473780051242548e-10 -0.034999996603662216 0 -0.00026427706586740495 -0.034726336680670322 0 -0.00023352992631414332 -0.034688358344314822 0 1.2828599316116116e-07 -0.03500035994934126 0 0.0001412603221366903 -0.034980515312581416 0 -2.1247046444161816e-07 -0.034999804609861573 0 0.00041091866289044335 -0.03411633713248937 0 0.00011291224318649262 -0.035081757242344393 0 -2.4697396755361798e-06 -0.034516738927752005 0 0.0015711141029132311 -0.0300152464835741 0 0.00025816797600896165 -0.031934622769246905 0 0.00011291224318649262 -0.035081757242344393 0 -0.00026427706586740495 -0.034726336680670322 0 -2.4697396755361798e-06 -0.034516738927752005 0 0.00025816797600896165 -0.031934622769246905 0 0.0001412603221366903 -0.034980515312581416 0 -0.00026427706586740495 -0.034726336680670322 0 -0.00023352992631414332 -0.034688358344314822 0 -2.4697396755361798e-06 -0.034516738927752005 0 -3.5100932702143844e-05 -0