<?xml version="1.0"?>
<VTKFile type="UnstructuredGrid" version="0.1" byte_order="LittleEndian">
<UnstructuredGrid>
<Piece NumberOfPoints="31246" NumberOfCells="11002">
<Points>
<DataArray type="Float64" NumberOfComponents="3" format="ascii">
-0.50000000000000122 -0.48626226177556231 0 -0.5 -0.5 0 -0.47744677215909281 -0.48586902102723523 0 -0.5 -0.5 0 -0.47744677215909281 -0.48586902102723523 0 -0.43703850519391679 -0.50000000000000278 0 -0.50000000000000122 -0.48626226177556231 0 -0.47744677215909281 -0.48586902102723523 0 -0.50000000000000122 -0.48626226177556231 0 -0.48837032897421379 -0.47833512104644849 0 -0.47744677215909281 -0.48586902102723523 0 -0.50000000000000122 -0.48626226177556231 0 -0.49146454090854219 -0.4689652822595915 0 -0.5 -0.45947040656488303 0 -0.50000000000000122 -0.48626226177556231 0 -0.48837032897421379 -0.47833512104644849 0 -0.49146454090854219 -0.4689652822595915 0 -0.48837032897421379 -0.47833512104644849 0 -0.49146454090854219 -0.4689652822595915 0 -0.48021754227705432 -0.46921944800154552 0 -0.48837032897421379 -0.47833512104644849 0 -0.48021754227705432 -0.46921944800154552 0 -0.47744677215909281 -0.48586902102723523 0 -0.48021754227705432 -0.46921944800154552 0 -0.47744677215909281 -0.48586902102723523 0 -0.46669504855264982 -0.47411166219005851 0 -0.47744677215909281 -0.48586902102723523 0 -0.45489354431818457 -0.48547578027890798 0 -0.47744677215909281 -0.48586902102723523 0 -0.45489354431818457 -0.48547578027890798 0 -0.43703850519391679 -0.50000000000000278 0 -0.47744677215909281 -0.48586902102723523 0 -0.45489354431818457 -0.48547578027890798 0 -0.46669504855264982 -0.47411166219005851 0 -0.45489354431818457 -0.48547578027890798 0 -0.46669504855264982 -0.47411166219005851 0 -0.45579808238157821 -0.47072871740384009 0 -0.45489354431818457 -0.48547578027890798 0 -0.44201605671313399 -0.47822975049830801 0 -0.43234031647727622 -0.48508253953058089 0 -0.45489354431818457 -0.48547578027890798 0 -0.44755174516591978 -0.47302044260482001 0 -0.44201605671313399 -0.47822975049830801 0 -0.45489354431818457 -0.48547578027890798 0 -0.45579808238157821 -0.47072871740384009 0 -0.44755174516591978 -0.47302044260482001 0 -0.45579808238157821 -0.47072871740384009 0 -0.44755174516591978 -0.47302044260482001 0 -0.44150376996323493 -0.4669915145680098 0 -0.44118509719073001 -0.47397445435401558 0 -0.44150376996323493 -0.4669915145680098 0 -0.43366881692063142 -0.47765610974492489 0 -0.44755174516591978 -0.47302044260482001 0 -0.44118509719073001 -0.47397445435401558 0 -0.44150376996323493 -0.4669915145680098 0 -0.44755174516591978 -0.47302044260482001 0 -0.44118509719073001 -0.47397445435401558 0 -0.44201605671313399 -0.47822975049830801 0 -0.44118509719073001 -0.47397445435401558 0 -0.44201605671313399 -0.47822975049830801 0 -0.43366881692063142 -0.47765610974492489 0 -0.45489354431818457 -0.48547578027890798 0 -0.43234031647727622 -0.48508253953058089 0 -0.43703850519391679 -0.50000000000000278 0 -0.45489354431818457 -0.48547578027890798 0 -0.43234031647727622 -0.48508253953058089 0 -0.44664769923267927 -0.45303951004926701 0 -0.45038812783291587 -0.4394282604525962 0 -0.43664419314036101 -0.43620938163177569 0 -0.44664769923267927 -0.45303951004926701 0 -0.43664419314036101 -0.43620938163177569 0 -0.43399900571453209 -0.45178150049850879 0 -0.44664769923267927 -0.45303951004926701 0 -0.4370815665284552 -0.46337550336760891 0 -0.43399900571453209 -0.45178150049850879 0 -0.44664769923267927 -0.45303951004926701 0 -0.45805437768563673 -0.45314318602980719 0 -0.4370815665284552 -0.46337550336760891 0 -0.45805437768563673 -0.45314318602980719 0 -0.4370815665284552 -0.46337550336760891 0 -0.44150376996323493 -0.4669915145680098 0 -0.45805437768563673 -0.45314318602980719 0 -0.4370815665284552 -0.46337550336760891 0 -0.44150376996323493 -0.4669915145680098 0 -0.46511930162733889 -0.45926534423876397 0 -0.44150376996323493 -0.4669915145680098 0 -0.45805437768563673 -0.45314318602980719 0 -0.46511930162733889 -0.45926534423876397 0 -0.45579808238157821 -0.47072871740384009 0 -0.44150376996323493 -0.4669915145680098 0 -0.46511930162733889 -0.45926534423876397 0 -0.46669504855264982 -0.47411166219005851 0 -0.45579808238157821 -0.47072871740384009 0 -0.46511930162733889 -0.45926534423876397 0 -0.45805437768563673 -0.45314318602980719 0 -0.46511930162733889 -0.45926534423876397 0 -0.47902718884281831 -0.44291086869200552 0 -0.45805437768563673 -0.45314318602980719 0 -0.47902718884281831 -0.44291086869200552 0 -0.45805437768563673 -0.45314318602980719 0 -0.46443179948845359 -0.43800270507739131 0 -0.47902718884281831 -0.44291086869200552 0 -0.44664769923267927 -0.45303951004926701 0 -0.45038812783291587 -0.4394282604525962 0 -0.46443179948845359 -0.43800270507739131 0 -0.44664769923267927 -0.45303951004926701 0 -0.46443179948845359 -0.43800270507739131 0 -0.44664769923267927 -0.45303951004926701 0 -0.45805437768563673 -0.45314318602980719 0 -0.46443179948845359 -0.43800270507739131 0 -0.46511930162733889 -0.45926534423876397 0 -0.47902718884281831 -0.44291086869200552 0 -0.4887348332914429 -0.45153917390951809 0 -0.48021754227705432 -0.46921944800154552 0 -0.46511930162733889 -0.45926534423876397 0 -0.4887348332914429 -0.45153917390951809 0 -0.46511930162733889 -0.45926534423876397 0 -0.4887348332914429 -0.45153917390951809 0 -0.48021754227705432 -0.46921944800154552 0 -0.46669504855264982 -0.47411166219005851 0 -0.46511930162733889 -0.45926534423876397 0 -0.49146454090854219 -0.4689652822595915 0 -0.5 -0.45947040656488303 0 -0.4887348332914429 -0.45153917390951809 0 -0.49146454090854219 -0.4689652822595915 0 -0.48021754227705432 -0.46921944800154552 0 -0.4887348332914429 -0.45153917390951809 0 -0.47902718884281831 -0.44291086869200552 0 -0.49999999999999978 -0.43267855135420391 0 -0.5 -0.45947040656488303 0 -0.4887348332914429 -0.45153917390951809 0 -0.49999999999999978 -0.43267855135420391 0 -0.47902718884281831 -0.44291086869200552 0 -0.4887348332914429 -0.45153917390951809 0 -0.49999999999999978 -0.43267855135420391 0 -0.47902718884281831 -0.44291086869200552 0 -0.49999999999999978 -0.43267855135420391 0 -0.48221589974422779 -0.42296590010551549 0 -0.49999999999999978 -0.43267855135420391 0 -0.50000000000000155 -0.40792909513363901 0 -0.48221589974422779 -0.42296590010551549 0 -0.50000000000000155 -0.40792909513363901 0 -0.47888139771345339 -0.41656785451713441 0 -0.50000000000000155 -0.40792909513363901 0 -0.47888139771345339 -0.41656785451713441 0 -0.48221589974422779 -0.42296590010551549 0 -0.50000000000000155 -0.40792909513363901 0 -0.48221589974422779 -0.42296590010551549 0 -0.50000000000000155 -0.40792909513363901 0 -0.47888139771345339 -0.41656785451713441 0 -0.48523795207419068 -0.40261987222061291 0 -0.47888139771345339 -0.41656785451713441 0 -0.47060689193340433 -0.42576656779493222 0 -0.48221589974422779 -0.42296590010551549 0 -0.47888139771345339 -0.41656785451713441 0 -0.48523795207419068 -0.40261987222061291 0 -0.47329317342806781 -0.40581336687804759 0 -0.47888139771345339 -0.41656785451713441 0 -0.47329317342806781 -0.40581336687804759 0 -0.46810494572993111 -0.41519780141367668 0 -0.46443179948845359 -0.43800270507739131 0 -0.48221589974422779 -0.42296590010551549 0 -0.46443179948845359 -0.43800270507739131 0 -0.47060689193340433 -0.42576656779493222 0 -0.48221589974422779 -0.42296590010551549 0 -0.46443179948845359 -0.43800270507739131 0 -0.47902718884281831 -0.44291086869200552 0 -0.48221589974422779 -0.42296590010551549 0 -0.47888139771345339 -0.41656785451713441 0 -0.47060689193340433 -0.42576656779493222 0 -0.45776279542690718 -0.42638861807445511 0 -0.5 -0.38187796089046422 0 -0.50000000000000144 -0.39849265348142099 0 -0.48211600502069152 -0.3760246097946216 0 -0.50000000000000144 -0.39849265348142099 0 -0.48211600502069152 -0.3760246097946216 0 -0.50000000000000144 -0.39849265348142099 0 -0.48523795207419068 -0.40261987222061291 0 -0.48211600502069152 -0.3760246097946216 0 -0.50000000000000155 -0.40792909513363901 0 -0.50000000000000144 -0.39849265348142099 0 -0.48523795207419068 -0.40261987222061291 0 -0.48523795207419068 -0.40261987222061291 0 -0.47329317342806781 -0.40581336687804759 0 -0.47128289689518682 -0.38940204097588438 0 -0.48523795207419068 -0.40261987222061291 0 -0.48211600502069152 -0.3760246097946216 0 -0.47128289689518682 -0.38940204097588438 0 -0.48211600502069152 -0.3760246097946216 0 -0.47128289689518682 -0.38940204097588438 0 -0.46272413438504778 -0.37197463574957518 0 -0.45666452308407002 -0.38403218141984879 0 -0.46272413438504778 -0.37197463574957518 0 -0.4468028840339533 -0.37260501215794462 0 -0.47128289689518682 -0.38940204097588438 0 -0.45666452308407002 -0.38403218141984879 0 -0.46272413438504778 -0.37197463574957518 0 -0.47329317342806781 -0.40581336687804759 0 -0.47128289689518682 -0.38940204097588438 0 -0.45802941365459171 -0.39913142839865517 0 -0.47128289689518682 -0.38940204097588438 0 -0.45666452308407002 -0.38403218141984879 0 -0.45802941365459171 -0.39913142839865517 0 -0.47329317342806781 -0.40581336687804759 0 -0.45802941365459171 -0.39913142839865517 0 -0.4624824163512955 -0.41202136618506952 0 -0.44099050176866039 -0.40146257059613788 0 -0.44448328645156998 -0.38704778981718452 0 -0.42826734873076489 -0.39057865011278309 0 -0.45802941365459171 -0.39913142839865517 0 -0.44099050176866039 -0.40146257059613788 0 -0.44448328645156998 -0.38704778981718452 0 -0.45802941365459171 -0.39913142839865517 0 -0.44099050176866039 -0.40146257059613788 0 -0.45070919959982558 -0.41340366927254929 0 -0.44448328645156998 -0.38704778981718452 0 -0.4468028840339533 -0.37260501215794462 0 -0.43074289611824362 -0.37317088890264333 0 -0.45666452308407002 -0.38403218141984879 0 -0.45802941365459171 -0.39913142839865517 0 -0.44448328645156998 -0.38704778981718452 0 -0.45666452308407002 -0.38403218141984879 0 -0.44448328645156998 -0.38704778981718452 0 -0.4468028840339533 -0.37260501215794462 0 -0.45038812783291587 -0.4394282604525962 0 -0.46443179948845359 
[...]
<PointData Scalars="" Vectors="displacement," Tensors="">
<DataArray type="Float64" Name="displacement" NumberOfComponents="3" format="ascii">
-0.034999335545235224 3.0533628814264907e-07 0 -0.034998502704987514 -7.2500262115380649e-07 0 -0.033586483377750775 -0.00011381113390474324 0 -0.034998502704987514 -7.2500262115380649e-07 0 -0.033586483377750775 -0.00011381113390474324 0 -0.030597336402331737 1.3801209638330068e-06 0 -0.034999600378049993 -1.7599284780814326e-07 0 -0.034074896367033168 -0.00019253703755797995 0 -0.034999610154438761 -8.0952062758555693e-08 0 -0.034806237141051542 -6.4570519533531918e-05 0 -0.03459817758189377 -0.00011838201246018367 0 -0.034999610154438761 -8.0952062758555693e-08 0 -0.034867353083816846 -4.9346673005514333e-05 0 -0.034999666430403746 -1.0467192251332413e-07 0 -0.034999610154438761 -8.0952062758555693e-08 0 -0.034806237141051542 -6.4570519533531918e-05 0 -0.034867353083816846 -4.9346673005514333e-05 0 -0.034806237141051542 -6.4570519533531918e-05 0 -0.034867353083816846 -4.9346673005514333e-05 0 -0.034701409549041065 -9.5240359881505621e-05 0 -0.034806237141051542 -6.4570519533531918e-05 0 -0.034701409549041065 -9.5240359881505621e-05 0 -0.03459817758189377 -0.00011838201246018367 0 -0.034701409549041065 -9.5240359881505621e-05 0 -0.03459817758189377 -0.00011838201246018367 0 -0.034414101394999244 -0.00011016650255190077 0 -0.034074896367033168 -0.00019253703755797995 0 -0.033131209115763269 -3.649483678757465e-05 0 -0.033586483377750775 -0.00011381113390474324 0 -0.03224833343260336 -0.0001603601007857167 0 -0.030597336402331737 1.3801209638330068e-06 0 -0.03459817758189377 -0.00011838201246018367 0 -0.033912252040915948 -7.533662382223482e-05 0 -0.034414101394999244 -0.00011016650255190077 0 -0.033912252040915948 -7.533662382223482e-05 0 -0.034414101394999244 -0.00011016650255190077 0 -0.034270844703784893 6.4627239273129677e-06 0 -0.033912252040915948 -7.533662382223482e-05 0 -0.033619788853072909 0.00038283476538794213 0 -0.032584616562581999 0.00085522899950667705 0 -0.033912252040915948 -7.533662382223482e-05 0 -0.034050029600855437 0.00017095099814293539 0 -0.033619788853072909 0.00038283476538794213 0 -0.033912252040915948 -7.533662382223482e-05 0 -0.034270844703784893 6.4627239273129677e-06 0 -0.034050029600855437 0.00017095099814293539 0 -0.034270844703784893 6.4627239273129677e-06 0 -0.034050029600855437 0.00017095099814293539 0 -0.034286881068093848 0.00031985231861120597 0 -0.033852175512236793 0.00041251655033983114 0 -0.034286881068093848 0.00031985231861120597 0 -0.033438597742300333 0.00088370175428693855 0 -0.034050029600855437 0.00017095099814293539 0 -0.033852175512236793 0.00041251655033983114 0 -0.034286881068093848 0.00031985231861120597 0 -0.034050029600855437 0.00017095099814293539 0 -0.033852175512236793 0.00041251655033983114 0 -0.033619788853072909 0.00038283476538794213 0 -0.033852175512236793 0.00041251655033983114 0 -0.033619788853072909 0.00038283476538794213 0 -0.033438597742300333 0.00088370175428693855 0 -0.03224833343260336 -0.0001603601007857167 0 -0.032584616562581999 0.00085522899950667705 0 -0.030597336402331737 1.3801209638330068e-06 0 -0.033131209115763269 -3.649483678757465e-05 0 -0.032693981231532887 0.00088317015474795996 0 -0.034857205770855479 -0.0002226198667489239 0 -0.034740157943916938 -0.00020027728122475134 0 -0.034704131399386842 -0.00031921502232663135 0 -0.034857205770855479 -0.0002226198667489239 0 -0.034704131399386842 -0.00031921502232663135 0 -0.034817815867571593 -0.00033133516478094441 0 -0.034857205770855479 -0.0002226198667489239 0 -0.034899220299969981 -0.00030018095265404586 0 -0.034817815867571593 -0.00033133516478094441 0 -0.034857205770855479 -0.0002226198667489239 0 -0.034900631931820615 -0.00013879080864732913 0 -0.034899220299969981 -0.00030018095265404586 0 -0.034897689083046662 -0.00014233702791594473 0 -0.034907696263819774 -0.0002834502364371094 0 -0.034930589627027019 -0.0002647886539663732 0 -0.034893097747849953 -0.00013897020500740545 0 -0.034899220299969981 -0.00030018095265404586 0 -0.035101288900973436 3.9369797430454455e-05 0 -0.034720923315924156 -9.1382132551594592e-05 0 -0.034930589627027019 -0.0002647886539663732 0 -0.034893097747849953 -0.00013897020500740545 0 -0.034928567915202595 -0.00010132762702907482 0 -0.034270844703784893 6.4627239273129677e-06 0 -0.034286881068093848 0.00031985231861120597 0 -0.034605420543263252 -0.00010662893140915169 0 -0.034414101394999244 -0.00011016650255190077 0 -0.034270844703784893 6.4627239273129677e-06 0 -0.034605420543263252 -0.00010662893140915169 0 -0.034893097747849953 -0.00013897020500740545 0 -0.034928567915202595 -0.00010132762702907482 0 -0.034917466461006012 -5.000688714909712e-05 0 -0.034897689083046662 -0.00014233702791594473 0 -0.03493669735214585 -4.9986717747027759e-05 0 -0.034900631931820615 -0.00013879080864732913 0 -0.034916404849651958 -8.6895245332904898e-05 0 -0.034953830733230447 -4.8563011827895003e-05 0 -0.034857205770855479 -0.0002226198667489239 0 -0.034740157943916938 -0.00020027728122475134 0 -0.034725072962505349 -9.8271751147254742e-05 0 -0.034866647373975643 -0.00021398543240798423 0 -0.034824580194155796 -0.00010268671995663932 0 -0.034857205770855479 -0.0002226198667489239 0 -0.034900631931820615 -0.00013879080864732913 0 -0.034916404849651958 -8.6895245332904898e-05 0 -0.034928567915202595 -0.00010132762702907482 0 -0.034917466461006012 -5.000688714909712e-05 0 -0.034928732775821592 -4.0153523933375451e-05 0 -0.034701409549041065 -9.5240359881505621e-05 0 -0.034605420543263252 -0.00010662893140915169 0 -0.034928732775821592 -4.0153523933375451e-05 0 -0.034720923315924156 -9.1382132551594592e-05 0 -0.034914725267620586 -7.9930972727842436e-05 0 -0.034701409549041065 -9.5240359881505621e-05 0 -0.034414101394999244 -0.00011016650255190077 0 -0.034605420543263252 -0.00010662893140915169 0 -0.034867353083816846 -4.9346673005514333e-05 0 -0.034999666430403746 -1.0467192251332413e-07 0 -0.034928732775821592 -4.0153523933375451e-05 0 -0.034867353083816846 -4.9346673005514333e-05 0 -0.034701409549041065 -9.5240359881505621e-05 0 -0.034928732775821592 -4.0153523933375451e-05 0 -0.03493669735214585 -4.9986717747027759e-05 0 -0.034999973718743305 -2.4288368292448574e-08 0 -0.034999666430403746 -1.0467192251332413e-07 0 -0.034928732775821592 -4.0153523933375451e-05 0 -0.034999994984839862 -8.7746348225989187e-09 0 -0.034917466461006012 -5.000688714909712e-05 0 -0.034928732775821592 -4.0153523933375451e-05 0 -0.034999994984839862 -8.7746348225989187e-09 0 -0.034953830733230447 -4.8563011827895003e-05 0 -0.034999935619630836 -5.9101610839422717e-08 0 -0.034969003676276082 -2.7479388382754643e-05 0 -0.034999935619630836 -5.9101610839422717e-08 0 -0.034999984209926581 1.9051406400465322e-08 0 -0.034969003676276082 -2.7479388382754643e-05 0 -0.034772111730967045 9.3757712134174015e-06 0 -0.034698608359022047 -3.8586592951039004e-05 0 -0.03458859302005568 4.9718881960482376e-05 0 -0.03461357443385283 -2.509285952631869e-05 0 -0.034639022019728981 -1.1812133007041724e-05 0 -0.034772111730967045 9.3757712134174015e-06 0 -0.034807648574952804 -2.1989590796945913e-05 0 -0.035000122712640018 -1.6402815425844555e-07 0 -0.034775533347119823 -8.2142011808901568e-05 0 -0.034835915663193426 -4.6735002628859159e-05 0 -0.03461357443385283 -2.509285952631869e-05 0 -0.034654556987501028 -6.9446093919673022e-05 0 -0.034639022019728981 -1.1812133007041724e-05 0 -0.034775533347119823 -8.2142011808901568e-05 0 -0.034835915663193426 -4.6735002628859159e-05 0 -0.03472860420297616 -0.00010427609298739212 0 -0.034775533347119823 -8.2142011808901568e-05 0 -0.03472860420297616 -0.00010427609298739212 0 -0.034720220366379138 -0.00013739170957902878 0 -0.034824580194155796 -0.00010268671995663932 0 -0.034807648574952804 -2.1989590796945913e-05 0 -0.034725072962505349 -9.8271751147254742e-05 0 -0.034654556987501028 -6.9446093919673022e-05 0 -0.034639022019728981 -1.1812133007041724e-05 0 -0.034916404849651958 -8.6895245332904898e-05 0 -0.034953830733230447 -4.8563011827895003e-05 0 -0.034969003676276082 -2.7479388382754643e-05 0 -0.03461357443385283 -2.509285952631869e-05 0 -0.034654556987501028 -6.9446093919673022e-05 0 -0.034649398062627665 -0.00014107364851982394 0 -0.035000004837618864 -9.3561358836445315e-09 0 -0.035000002506631038 6.5803629404210267e-09 0 -0.034999658146314054 -8.3249678642657941e-06 0 -0.034999856840281528 -3.4876419423694951e-08 0 -0.034723138285035558 -3.7009917208656556e-06 0 -0.034999253889623931 2.7061862507616987e-07 0 -0.034835915663193426 -4.6735002628859159e-05 0 -0.034438635310897359 7.7392670987128818e-07 0 -0.035000122712640018 -1.6402815425844555e-07 0 -0.034999253889623931 2.7061862507616987e-07 0 -0.034835915663193426 -4.6735002628859159e-05 0 -0.034835915663193426 -4.6735002628859159e-05 0 -0.03472860420297616 -0.00010427609298739212 0 -0.03456566639012832 -0.00011797095334524296 0 -0.034835915663193426 -4.6735002628859159e-05 0 -0.034438635310897359 7.7392670987128818e-07 0 -0.03456566639012832 -0.00011797095334524296 0 -0.034438635310897359 7.7392670987128818e-07 0 -0.03456566639012832 -0.00011797095334524296 0 -0.034322078943359188 -0.00017011632119145502 0 -0.034427898728129798 -0.00021522395474657982 0 -0.034322078943359188 -0.00017011632119145502 0 -0.03426451047208507 -0.00028789161405149154 0 -0.03456566639012832 -0.00011797095334524296 0 -0.034427898728129798 -0.00021522395474657982 0 -0.034322078943359188 -0.00017011632119145502 0 -0.03472860420297616 -0.00010427609298739212 0 -0.03456566639012832 -0.00011797095334524296 0 -0.034573036565724316 -0.00020117035375891891 0 -0.03456566639012832 -0.00011797095334524296 0 -0.034427898728129798 -0.00021522395474657982 0 -0.034573036565724316 -0.00020117035375891891 0 -0.03472860420297616 -0.00010427609298739212 0 -0.034573036565724316 -0.00020117035375891891 0 -0.034680816609708801 -0.0001678842565895298 0 -0.034504516420150275 -0.00030631872921293166 0 -0.03439605527213415 -0.00029282923678101476 0 -0.034358436950996697 -0.00039356337045359053 0 -0.034573036565724316 -0.00020117035375891891 0 -0.034504516420150275 -0.00030631872921293166 0 -0.03439605527213415 -0.00029282923678101476 0 -0.034573036565724316 -0.00020117035375891891 0 -0.034504516420150275 -0.00030631872921293166 0 -0.034629900658589827 -0.00023832767659802078 0 -0.03439605527213415 -0.00029282923678101476 0 -0.03426451047208507 -0.00028789161405149154 0 -0.034201487452296037 -0.00038098494242837276 0 -0.034427898728129798 -0.00021522395474657982 0 -0.034573036565724316 -0.00020117035375891891 0 -0.03439605527213415 -0.00029282923678101476 0 -0.034427898728129798 -0.00021522395474657982 0 -0.03439605527213415 -0.00029282923678101476 0 -0.03426451047208507 -0.00028789161405149154 0 -0.034740157943916938 -0.00020027728122475134 0 -0.034725072962505349 -9.8271751147254742e-05 0 -0.034649398062627665 -0.00014107364851982394 0 -0.034725072962505349 -9.8271751147254742e-05 0 -0.034654556987501028 -6.9446093919673022e-05 0 -0.034649398062627665 -0.00014107364851982394 0 -0.034698608359022047 -3.8586592951039004e-05 0 -0.034678908925408793 -0.00017039521694319734 0 -0.034704623072398709 -0.00019736162315942969 0 -0.034720220366379138 -0.00013739170957902878 0 -0.034680816609708801 -0.0001678842565895298 0 -0.034775533347119823 -8.2142011808901568e-05 0 -0.034704623072398709 -0.00019736162315942969 0 -0.034720220366379138 -0.00013739170957902878 0 -0.03472860420297616 -0.00010427609298739212 0 -0.034720220366379138 -0.00013739170957902878 0 -0.034680816609708801 -0.0001678842565895298 0 -0.034573036565724316 -0.00020117035375891891 0 -0.034680816609708801 -0.0001678842565895298 0 -0.034629900658589827 -0.00023832767659802078 0 -0.034704623072398709 -0.00019736162315942969 0 -0.034680816609708801 -0.0001678842565895298 0 -0.034629900658589827 -0.00023832767659802078 0 -0.034704623072398709 -0.00019736162315942969 0 -0.034629900658589827 -0.00023832767659802078 0 -0.034643471508343938 -0.00028859276309646054 0 -0.034504516420150275 -0.00030631872921293166 0 -0.034629900658589827 -0.00023832767659802078 0 -0.034575737299517399 -0.00032196971626616993 0 -0.034629900658589827 -0.00023832767659802078 0 -0.034575737299517399 -0.00032196971626616993 0 -0.034643471508343938 -0.00028859276309646054 0 -0.034678908925408793 -0.00017039521694319734 0 -0.034706356105372434 -0.00030464813408573023 0 -0.034704623072398709 -0.00019736162315942969 0 -0.034643471508343938 -0.00028859276309646054 0 -0.034704131399386842 -0.00031921502232663135 0 -0.034740157943916938 -0.00020027728122475134 0 -0.034649398062627665 -0.00014107364851982394 0 -0.034704131399386842 -0.00031921502232663135 0 -0.034704131399386842 -0.00031921502232663135 0 -0.034599514627766344 -0.00038353062984633935 0 -0.03465600988325012 -0.0004740556510628779 0 -0.034643471508343938 -0.00028859276309646054 0 -0.034704131399386842 -0.00031921502232663135 0 -0.034599514627766344 -0.00038353062984633935 0 -0.034599514627766344 -0.00038353062984633935 0 -0.034502451125041758 -0.00051870754281124146 0 -0.03448120176738536 -0.00040197380064221238 0 -0.034575737299517399 -0.00032196971626616993 0 -0.034643471508343938 -0.00028859276309646054 0 -0.034599514627766344 -0.00038353062984633935 0 -0.034575737299517399 -0.00032196971626616993 0 -0.034599514627766344 -0.00038353062984633935 0 -0.03448120176738536 -0.00040197380064221238 0 -0.034504516420150275 -0.00030631872921293166 0 -0.034575737299517399 -0.00032196971626616993 0 -0.03448120176738536 -0.00040197380064221238 0 -0.034599514627766344 -0.00038353062984633935 0 -0.034502451125041758 -0.00051870754281124146 0 -0.03465600988325012 -0.0004740556510628779 0 -0.034502451125041758 -0.00051870754281124146 0 -0.03465600988325012 -0.0004740556510628779 0 -0.034583877965332022 -0.0006035068785173619 0 -0.03439605527213415 -0.00029282923678101476 0 -0.034358436950996697 -0.00039356337045359053 0 -0.034201487452296037 -0.00038098494242837276 0 -0.034358436950996697 -0.00039356337045359053 0 -0.034195729897669558 -0.00049057766263814289 0 -0.034201487452296037 -0.00038098494242837276 0 -0.034358436950996697 -0.00039356337045359053 0 -0.03448120176738536 -0.00040197380064221238 0 -0.034345151919728388 -0.00051772445181660106 0 -0.034504516420150275 -0.00030631872921293166 0 -0.034358436950996697 -0.00039356337045359053 0 -0.03448120176738536 -0.00040197380064221238 0 -0.034502451125041758 -0.00051870754281124146 0 -0.03448120176738536 -0.00040197380064221238 0 -0.034345151919728388 -0.00051772445181660106 0 -0.034358436950996697 -0.00039356337045359053 0 -0.034345151919728388 -0.00051772445181660106 0 -0.034195729897669558 -0.00049057766263814289 0 -0.034345151919728388 -0.00051772445181660106 0 -0.034195729897669558 -0.00049057766263814289 0 -0.034216007263008046 -0.00064923392833297715 0 -0.034195729897669558 -0.00049057766263814289 0 -0.034216007263008046 -0.00064923392833297715 0 -0.034046727974083028 -0.00059709196386906736 0 -0.034216007263008046 -0.00064923392833297715 0 -0.034046727974083028 -0.00059709196386906736 0 -0.033950904142568794 -0.00076518230116461863 0 -0.034345151919728388 -0.00051772445181660106 0 -0.034216007263008046 -0.00064923392833297715 0 -0.034431209891824084 -0.00070108845756204662 0 -0.034502451125041758 -0.00051870754281124146 0 -0.034345151919728388 -0.00051772445181660106 0 -0.034431209891824084 -0.00070108845756204662 0 -0.034216007263008046 -0.00064923392833297715 0 -0.034207812835482403 -0.00085471560920464726 0 -0.034431209891824084 -0.00070108845756204662 0 -0.034207812835482403 -0.00085471560920464726 0 -0.034431209891824084 -0.00070108845756204662 0 -0.034440754772156329 -0.00090902591958810569 0 -0.034216007263008046 -0.00064923392833297715 0 -0.034207812835482403 -0.00085471560920464726 0 -0.033950904142568794 -0.00076518230116461863 0 -0.034583877965332022 -0.0006035068785173619 0 -0.034431209891824084 -0.00070108845756204662 0 -0.034620047670849433 -0.00073702329704330722 0 -0.034502451125041758 -0.00051870754281124146 0 -0.034583877965332022 -0.0006035068785173619 0 -0.034431209891824084 -0.00070108845756204662 0 -0.034431209891824084 -0.00070108845756204662 0 -0.034620047670849433 -0.00073702329704330722 0 -0.034440754772156329 -0.00090902591958810569 0 -0.024701039322159637 -0.00032889685518759361 0 -0.024405312466753117 -7.2482831053947028e-05 0 -0.024780039797319662 0.00011172582028097761 0 -0.029696890697839182 -0.00050361175988689164 0 -0.029859793549021688 -0.00049449652205758659 0 -0.024701039322159637 -0.00032889685518759361 0 -0.024314597643042859 -0.00053677425990586263 0 -0.024405312466753117 -7.2482831053947028e-05 0 -0.034583877965332022 -0.0006035068785173619 0 -0.034620047670849433 -0.00073702329704330722 0 -0.034782016154412593 -0.00059134772404560623 0 -0.029696890697839182 -0.00050361175988689164 0 -0.029439757212314191 -0.00071477899704124178 0 -0.024314597643042859 -0.00053677425990586263 0 -0.024053322451246598 -0.00035649932549422042 0 -0.024123603011378416 -0.00011393500526429054 0 -0.024314597643042859 -0.00053677425990586263 0 -0.024053322451246598 -0.00035649932549422042 0 -0.02399056675239811 -0.00079067716268256462 0 -0.024314597643042859 -0.00053677425990586263 0 -0.024123603011378416 -0.00011393500526429054 0 -0.024405312466753117 -7.2482831053947028e-05 0 -0.024053322451246598 -0.00035649932549422042 0 -0.024123603011378416 -0.00011393500526429054 0 -0.023920079309574696 -0.00011833371441170332 0 -0.024123603011378416 -0.00011393500526429054 0 -0.023920079309574696 -0.00011833371441170332 0 -0.023953825601732134 0.00010861141651742738 0 -0.023920079309574696 -0.00011833371441170332 0 -0.023765236018542135 -0.00033727978235374234 0 -0.023698976244712098 0.00011068721772555622 0 -0.024053322451246598 -0.00035649932549422042 0 -0.023920079309574696 -0.00011833371441170332 0 -0.023765236018542135 -0.00033727978235374234 0 -0.027217905534455918 -1.7789144760728072e-07 0 -0.027830759659845772 -3.5678223984573618e-05 0 -0.026001308857057835 3.3550532038809604e-05 0 -0.023765236018542135 -0.00033727978235374234 0 -0.023636460887312968 0.00014120329284521529 0 -0.023698976244712098 0.00011068721772555622 0 -0.025319917620906775 -0.00027364922806345847 0 -0.024913472256481915 -4.2064635002996578e-05 0 -0.027217905534455918 -1.7789144760728072e-07 0 -0.027830759659845772 -3.5678223984573618e-05 0 -0.028382990850628387 -8.0557783432197474e-05 0 -0.027217905534455918 -1.7789144760728072e-07 0 -0.028905227105917516 -5.8001367649538755e-07 0 -0.028382990850628387 -8.0557783432197474e-05 0 -0.027830759659845772 -3.5678223984573618e-05 0 -0.028588613675727986 -3.10774595551089e-05 0 -0.028382990850628387 -8.0557783432197474e-05 0 -0.025319917620906775 -0.00027364922806345847 0 -0.029830506957289386 0.00021967683246481906 0 -0.024053322451246598 -0.00035649932549422042 0 -0.023765236018542135 -0.00033727978235374234 0 -0.02399056675239811 -0.00079067716268256462 0 -0.028588613675727986 -3.10774595551089e-05 0 -0.028382990850628387 -8.0557783432197474e-05 0 -0.02906324710664334 7.5315427797662522e-05 0 -0.028905227105917516 -5.8001367649538755e-07 0 -0.028382990850628387 -8.0557783432197474e-05 0 -0.02906324710664334 7.5315427797662522e-05 0 -0.028905227105917516 -5.8001367649538755e-07 0 -0.02906324710664334 7.5315427797662522e-05 0 -0.030590630871519229 1.0657763367225783e-06 0 -0.032342483852625975 0.0014352791635810168 0 -0.032584616562581999 0.00085522899950667705 0 -0.030597336402331737 1.3801209638330068e-06 0 -0.030898159323424514 0.00078659384392901785 0 -0.030592354855300877 1.5341253709906189e-07 0 -0.034286881068093848 0.00031985231861120597 0 -0.033650224296980009 0.00223713698711031 0 -0.033438597742300333 0.00088370175428693855 0 -0.035101288900973436 3.9369797430454455e-05 0 -0.029830506957289386 0.00021967683246481906 0 -0.033650224296980009 0.00223713698711031 0 -0.032342483852625975 0.0014352791635810168 0 -0.033438597742300333 0.00088370175428693855 0 -0