<?xml version="1.0"?>
<VTKFile type="UnstructuredGrid" version="0.1" byte_order="LittleEndian">
<UnstructuredGrid>
<Piece NumberOfPoints="27927" NumberOfCells="9754">
<Points>
<DataArray type="Float64" NumberOfComponents="3" format="ascii">
-0.5 -0.5 0 -0.48335695638425957 -0.47516790077666782 0 -0.5 -0.45073792250622119 0 -0.48335695638425957 -0.47516790077666782 0 -0.46931589116145422 -0.49999999999999672 0 -0.46734030062654031 -0.47040852092327368 0 -0.5 -0.5 0 -0.48335695638425957 -0.47516790077666782 0 -0.46931589116145422 -0.49999999999999672 0 -0.46931589116145422 -0.49999999999999672 0 -0.46734030062654031 -0.47040852092327368 0 -0.46931589116145422 -0.49999999999999672 0 -0.46734030062654031 -0.47040852092327368 0 -0.44151123930832797 -0.48180473692359271 0 -0.46734030062654031 -0.47040852092327368 0 -0.44151123930832797 -0.48180473692359271 0 -0.44343136890379159 -0.46546975173801841 0 -0.44151123930832797 -0.48180473692359271 0 -0.44343136890379159 -0.46546975173801841 0 -0.43287382338990738 -0.4690730124016016 0 -0.46931589116145422 -0.49999999999999672 0 -0.44151123930832797 -0.48180473692359271 0 -0.44114584062494538 -0.5 0 -0.44854033576539032 -0.44990502101748481 0 -0.44729150785537469 -0.43382852050337001 0 -0.43406826831532219 -0.43994051948471141 0 -0.44854033576539032 -0.44990502101748481 0 -0.44343136890379159 -0.46546975173801841 0 -0.43086315702756961 -0.45789654348009617 0 -0.46734030062654031 -0.47040852092327368 0 -0.44854033576539032 -0.44990502101748481 0 -0.44343136890379159 -0.46546975173801841 0 -0.46734030062654031 -0.47040852092327368 0 -0.46536471009162611 -0.44081704184655079 0 -0.46734030062654031 -0.47040852092327368 0 -0.44854033576539032 -0.44990502101748481 0 -0.46536471009162611 -0.44081704184655079 0 -0.44854033576539032 -0.44990502101748481 0 -0.46536471009162611 -0.44081704184655079 0 -0.44729150785537469 -0.43382852050337001 0 -0.46536471009162611 -0.44081704184655079 0 -0.47910740248295181 -0.45282373767928752 0 -0.47743267001163048 -0.42324865679461071 0 -0.46734030062654031 -0.47040852092327368 0 -0.46536471009162611 -0.44081704184655079 0 -0.47910740248295181 -0.45282373767928752 0 -0.48335695638425957 -0.47516790077666782 0 -0.46734030062654031 -0.47040852092327368 0 -0.47910740248295181 -0.45282373767928752 0 -0.48335695638425957 -0.47516790077666782 0 -0.47910740248295181 -0.45282373767928752 0 -0.5 -0.45073792250622119 0 -0.47910740248295181 -0.45282373767928752 0 -0.5 -0.45073792250622119 0 -0.47743267001163048 -0.42324865679461071 0 -0.5 -0.45073792250622119 0 -0.47743267001163048 -0.42324865679461071 0 -0.49999999999999861 -0.38523967692199151 0 -0.47743267001163048 -0.42324865679461071 0 -0.47176368126739948 -0.39734396123012822 0 -0.45871334940499309 -0.41712305769021618 0 -0.47743267001163048 -0.42324865679461071 0 -0.49999999999999861 -0.38523967692199151 0 -0.47176368126739948 -0.39734396123012822 0 -0.49999999999999861 -0.38523967692199151 0 -0.48090811028139357 -0.37130876753034658 0 -0.47176368126739948 -0.39734396123012822 0 -0.46005522269310217 -0.38692287095269068 0 -0.48090811028139357 -0.37130876753034658 0 -0.49999999999999861 -0.38523967692199151 0 -0.47176368126739948 -0.39734396123012822 0 -0.48090811028139357 -0.37130876753034658 0 -0.46005522269310217 -0.38692287095269068 0 -0.45085593012893482 -0.36537402464480451 0 -0.46005522269310217 -0.38692287095269068 0 -0.48090811028139357 -0.37130876753034658 0 -0.46386732763955107 -0.37127821521501148 0 -0.47176368126739948 -0.39734396123012822 0 -0.46005522269310217 -0.38692287095269068 0 -0.45212330639585502 -0.40322246918245352 0 -0.47176368126739948 -0.39734396123012822 0 -0.45212330639585502 -0.40322246918245352 0 -0.45871334940499309 -0.41712305769021618 0 -0.45212330639585502 -0.40322246918245352 0 -0.44031340291423787 -0.39336549356134548 0 -0.42977087569954192 -0.42135696247788668 0 -0.46005522269310217 -0.38692287095269068 0 -0.45212330639585502 -0.40322246918245352 0 -0.44031340291423787 -0.39336549356134548 0 -0.44031340291423787 -0.39336549356134548 0 -0.43469370445862809 -0.38213730172421051 0 -0.45085593012893482 -0.36537402464480451 0 -0.44031340291423787 -0.39336549356134548 0 -0.45085593012893482 -0.36537402464480451 0 -0.46005522269310217 -0.38692287095269068 0 -0.44031340291423787 -0.39336549356134548 0 -0.45085593012893482 -0.36537402464480451 0 -0.46536471009162611 -0.44081704184655079 0 -0.45871334940499309 -0.41712305769021618 0 -0.44729150785537469 -0.43382852050337001 0 -0.46536471009162611 -0.44081704184655079 0 -0.47743267001163048 -0.42324865679461071 0 -0.45871334940499309 -0.41712305769021618 0 -0.45212330639585502 -0.40322246918245352 0 -0.45871334940499309 -0.41712305769021618 0 -0.42977087569954192 -0.42135696247788668 0 -0.45871334940499309 -0.41712305769021618 0 -0.44729150785537469 -0.43382852050337001 0 -0.42977087569954192 -0.42135696247788668 0 -0.42977087569954192 -0.42135696247788668 0 -0.41922834848484442 -0.44934843139442737 0 -0.44729150785537469 -0.43382852050337001 0 -0.42977087569954192 -0.42135696247788668 0 -0.43406826831532219 -0.43994051948471141 0 -0.42977087569954192 -0.42135696247788668 0 -0.43406826831532219 -0.43994051948471141 0 -0.41922834848484442 -0.44934843139442737 0 -0.44031340291423787 -0.39336549356134548 0 -0.42977087569954192 -0.42135696247788668 0 -0.41547030410042018 -0.40035849742507618 0 -0.40496814321414881 -0.42461836475728743 0 -0.3997283941375816 -0.40804277243342019 0 -0.41547030410042018 -0.40035849742507618 0 -0.40496814321414881 -0.42461836475728743 0 -0.42977087569954192 -0.42135696247788668 0 -0.41547030410042018 -0.40035849742507618 0 -0.40496814321414881 -0.42461836475728743 0 -0.42977087569954192 -0.42135696247788668 0 -0.40496814321414881 -0.42461836475728743 0 -0.41922834848484442 -0.44934843139442737 0 -0.4259724649866915 -0.37609863009286482 0 -0.43469370445862809 -0.38213730172421051 0 -0.41547030410042018 -0.40035849742507618 0 -0.4259724649866915 -0.37609863009286482 0 -0.43469370445862809 -0.38213730172421051 0 -0.43095553882326859 -0.37245180954684931 0 -0.44031340291423787 -0.39336549356134548 0 -0.42977087569954192 -0.42135696247788668 0 -0.41547030410042018 -0.40035849742507618 0 -0.44031340291423787 -0.39336549356134548 0 -0.43469370445862809 -0.38213730172421051 0 -0.41547030410042018 -0.40035849742507618 0 -0.41547030410042018 -0.40035849742507618 0 -0.40484970631585521 -0.39155714281725917 0 -0.3997283941375816 -0.40804277243342019 0 -0.4259724649866915 -0.37609863009286482 0 -0.40484970631585521 -0.39155714281725917 0 -0.41111828990261923 -0.37158638338599059 0 -0.4259724649866915 -0.37609863009286482 0 -0.41547030410042018 -0.40035849742507618 0 -0.40484970631585521 -0.39155714281725917 0 -0.4259724649866915 -0.37609863009286482 0 -0.40484970631585521 -0.39155714281725917 0 -0.4259724649866915 -0.37609863009286482 0 -0.41547030410042018 -0.40035849742507618 0 -0.40484970631585521 -0.39155714281725917 0 -0.41111828990261923 -0.37158638338599059 0 -0.39260236157712802 -0.36588875755825129 0 -0.40484970631585521 -0.39155714281725917 0 -0.3997283941375816 -0.40804277243342019 0 -0.38372694764501902 -0.40701565554165359 0 -0.40484970631585521 -0.39155714281725917 0 -0.38372694764501902 -0.40701565554165359 0 -0.40484970631585521 -0.39155714281725917 0 -0.38372694764501902 -0.40701565554165359 0 -0.37431098846497091 -0.38546540042127903 0 -0.40484970631585521 -0.39155714281725917 0 -0.39260236157712802 -0.36588875755825129 0 -0.37431098846497091 -0.38546540042127903 0 -0.40496814321414881 -0.42461836475728743 0 -0.38552524171378588 -0.421946441048902 0 -0.38888210116230609 -0.43395199885338731 0 -0.40496814321414881 -0.42461836475728743 0 -0.38888210116230609 -0.43395199885338731 0 -0.39446598232787933 -0.44887823208949951 0 -0.40496814321414881 -0.42461836475728743 0 -0.39446598232787933 -0.44887823208949951 0 -0.40496814321414881 -0.42461836475728743 0 -0.3997283941375816 -0.40804277243342019 0 -0.38552524171378588 -0.421946441048902 0 -0.38372694764501902 -0.40701565554165359 0 -0.38552524171378588 -0.421946441048902 0 -0.36260418897418289 -0.42247416826604822 0 -0.3997283941375816 -0.40804277243342019 0 -0.38372694764501902 -0.40701565554165359 0 -0.38552524171378588 -0.421946441048902 0 -0.38552524171378588 -0.421946441048902 0 -0.38888210116230609 -0.43395199885338731 0 -0.37324167514947693 -0.43557568644161559 0 -0.38888210116230609 -0.43395199885338731 0 -0.38387916132476829 -0.4486772046171853 0 -0.37324167514947693 -0.43557568644161559 0 -0.38387916132476829 -0.4486772046171853 0 -0.37324167514947693 -0.43557568644161559 0 -0.38387916132476829 -0.4486772046171853 0 -0.39446598232787933 -0.44887823208949951 0 -0.38387916132476829 -0.4486772046171853 0 -0.39446598232787933 -0.44887823208949951 0 -0.39241401592281749 -0.45361825019586571 0 -0.38888210116230609 -0.43395199885338731 0 -0.38387916132476829 -0.4486772046171853 0 -0.39446598232787933 -0.44887823208949951 0 -0.40496814321414881 -0.42461836475728743 0 -0.39446598232787933 -0.44887823208949951 0 -0.41922834848484442 -0.44934843139442737 0 -0.39446598232787933 -0.44887823208949951 0 -0.40439789014030619 -0.45483519472048051 0 -0.41922834848484442 -0.44934843139442737 0 -0.39446598232787933 -0.44887823208949951 0 -0.39792027761805437 -0.45681412413119821 0 -0.39241401592281749 -0.45361825019586571 0 -0.39446598232787933 -0.44887823208949951 0 -0.39241401592281749 -0.45361825019586571 0 -0.40292375363875671 -0.46062763786987287 0 -0.39713267826216908 -0.46500072224006311 0 -0.41698541521393179 -0.46018106537442871 0 -0.39446598232787933 -0.44887823208949951 0 -0.40439789014030619 -0.45483519472048051 0 -0.39792027761805437 -0.45681412413119821 0 -0.40292375363875671 -0.46062763786987287 0 -0.40439789014030619 -0.45483519472048051 0 -0.40745108863199658 -0.45850754811740418 0 -0.40292375363875671 -0.46062763786987287 0 -0.39792027761805437 -0.45681412413119821 0 -0.39713267826216908 -0.46500072224006311 0 -0.40292375363875671 -0.460627
[...]
<PointData Scalars="" Vectors="displacement," Tensors="">
<DataArray type="Float64" Name="displacement" NumberOfComponents="3" format="ascii">
-0.034999154306714408 -0.03499714311309212 0 -0.033555013699988367 -0.03472413978011149 0 -0.031553266154578832 -0.03499822607330598 0 -0.033555013699988367 -0.03472413978011149 0 -0.034998209860919602 -0.032858892480640375 0 -0.033156974419363876 -0.035193279881531814 0 -0.034999154306714408 -0.03499714311309212 0 -0.033555013699988367 -0.03472413978011149 0 -0.034998209860919602 -0.032858892480640375 0 -0.034999452149563695 -0.032852544284172898 0 -0.034072772319195539 -0.033969643340576096 0 -0.034999813001872361 -0.032850012599261492 0 -0.03515421101177451 -0.032807384800697607 0 -0.035219570797668978 -0.031712817715861312 0 -0.03515421101177451 -0.032807384800697607 0 -0.035219570797668978 -0.031712817715861312 0 -0.034852236219983887 -0.032808742280325494 0 -0.035219570797668978 -0.031712817715861312 0 -0.034852236219983887 -0.032808742280325494 0 -0.035079802853045433 -0.03172180244129761 0 -0.034999813001872361 -0.032850012599261492 0 -0.035219570797668978 -0.031712817715861312 0 -0.034999059533420848 -0.030882365768397632 0 -0.034041318006109433 -0.034411953198867702 0 -0.031679783309460897 -0.03566411474164171 0 -0.032503439086325789 -0.036939295481858182 0 -0.034041318006109433 -0.034411953198867702 0 -0.034852236219983887 -0.032808742280325494 0 -0.0351362217773604 -0.032028210034724496 0 -0.03515421101177451 -0.032807384800697607 0 -0.034041318006109433 -0.034411953198867702 0 -0.034852236219983887 -0.032808742280325494 0 -0.034072772319195539 -0.033969643340576096 0 -0.032342106255913806 -0.034537232369615312 0 -0.03515421101177451 -0.032807384800697607 0 -0.034041318006109433 -0.034411953198867702 0 -0.032088972733657739 -0.034613114946221567 0 -0.034041318006109433 -0.034411953198867702 0 -0.032088972733657739 -0.034613114946221567 0 -0.031679783309460897 -0.03566411474164171 0 -0.032088972733657739 -0.034613114946221567 0 -0.032173701835523656 -0.034977544872403669 0 -0.030304498382852749 -0.035131553321701481 0 -0.033156974419363876 -0.035193279881531814 0 -0.032088972733657739 -0.034613114946221567 0 -0.032173701835523656 -0.034977544872403669 0 -0.033555013699988367 -0.03472413978011149 0 -0.033156974419363876 -0.035193279881531814 0 -0.032173701835523656 -0.034977544872403669 0 -0.033555013699988367 -0.03472413978011149 0 -0.032173701835523656 -0.034977544872403669 0 -0.031553266154578832 -0.03499822607330598 0 -0.032173701835523656 -0.034977544872403669 0 -0.031553266154578832 -0.03499822607330598 0 -0.030304498382852749 -0.035131553321701481 0 -0.031553266154578832 -0.03499822607330598 0 -0.030304498382852749 -0.035131553321701481 0 -0.026970080534347737 -0.034997813195549919 0 -0.030304498382852749 -0.035131553321701481 0 -0.028426394820486759 -0.035661291735032616 0 -0.030029467640564484 -0.035657025408353513 0 -0.030304498382852749 -0.035131553321701481 0 -0.026970080534347737 -0.034997813195549919 0 -0.028426394820486759 -0.035661291735032616 0 -0.02696669870535905 -0.035000056873969267 0 -0.026298100142214637 -0.035767645948726147 0 -0.028426394820486759 -0.035661291735032616 0 -0.027919098030113058 -0.03639507804413971 0 -0.026739451385082581 -0.035338307654422724 0 -0.026970080534347737 -0.034997813195549919 0 -0.028426394820486759 -0.035661291735032616 0 -0.026739451385082581 -0.035338307654422724 0 -0.027520959994141784 -0.037224607204703573 0 -0.026583166342965869 -0.033837220047456526 0 -0.027919098030113058 -0.03639507804413971 0 -0.026739451385082581 -0.035338307654422724 0 -0.026582980224244542 -0.036548733617249689 0 -0.028426394820486759 -0.035661291735032616 0 -0.027919098030113058 -0.03639507804413971 0 -0.028941742418688146 -0.0363595520583316 0 -0.028426394820486759 -0.035661291735032616 0 -0.028941742418688146 -0.0363595520583316 0 -0.030029467640564484 -0.035657025408353513 0 -0.028941742418688146 -0.0363595520583316 0 -0.028311736982831362 -0.037064430366827217 0 -0.030295349579548429 -0.037467840304794039 0 -0.027919098030113058 -0.03639507804413971 0 -0.028941742418688146 -0.0363595520583316 0 -0.028311736982831362 -0.037064430366827217 0 -0.029382762513264566 -0.029538316682336217 0 -0.028956332155981854 -0.029743329018982703 0 -0.028358523808564511 -0.02926945120789207 0 -0.029107683823537425 -0.033152457199945903 0 -0.026583166342965869 -0.033837220047456526 0 -0.027919098030113058 -0.03639507804413971 0 -0.028311736982831362 -0.037064430366827217 0 -0.027140338847796926 -0.036689097102519726 0 -0.032088972733657739 -0.034613114946221567 0 -0.030029467640564484 -0.035657025408353513 0 -0.031679783309460897 -0.03566411474164171 0 -0.032088972733657739 -0.034613114946221567 0 -0.030304498382852749 -0.035131553321701481 0 -0.030029467640564484 -0.035657025408353513 0 -0.028941742418688146 -0.0363595520583316 0 -0.030029467640564484 -0.035657025408353513 0 -0.030295349579548429 -0.037467840304794039 0 -0.030029467640564484 -0.035657025408353513 0 -0.031679783309460897 -0.03566411474164171 0 -0.030295349579548429 -0.037467840304794039 0 -0.030260554298807262 -0.034044547286808509 0 -0.033794327883363964 -0.032765894994024027 0 -0.031679783309460897 -0.03566411474164171 0 -0.030295349579548429 -0.037467840304794039 0 -0.032503439086325789 -0.036939295481858182 0 -0.030295349579548429 -0.037467840304794039 0 -0.032503439086325789 -0.036939295481858182 0 -0.033789406900726453 -0.039063540437428823 0 -0.029107683823537425 -0.033152457199945903 0 -0.030260554298807262 -0.034044547286808509 0 -0.029286762931091323 -0.028331330761964799 0 -0.029767478920799898 -0.028512693540239425 0 -0.029438068660460549 -0.028617907926455768 0 -0.029641548644954812 -0.029474298306371369 0 -0.02991873369287484 -0.02980254121957494 0 -0.030613824031804234 -0.029981817390384125 0 -0.029692209876457036 -0.030570744442663226 0 -0.030763732522837692 -0.03105411187695218 0 -0.030613824031804234 -0.029981817390384125 0 -0.030763732522837692 -0.03105411187695218 0 -0.031867679825942755 -0.030446297161852768 0 -0.028726157707187647 -0.030073714098610156 0 -0.028956332155981854 -0.029743329018982703 0 -0.029692209876457036 -0.030570744442663226 0 -0.028726157707187647 -0.030073714098610156 0 -0.028956332155981854 -0.029743329018982703 0 -0.028605197575864445 -0.02985039733811656 0 -0.029382762513264566 -0.029538316682336217 0 -0.030613824031804234 -0.029981817390384125 0 -0.029692209876457036 -0.030570744442663226 0 -0.029382762513264566 -0.029538316682336217 0 -0.028956332155981854 -0.029743329018982703 0 -0.029692209876457036 -0.030570744442663226 0 -0.029286762931091323 -0.028331330761964799 0 -0.029121125400527439 -0.028525088215616497 0 -0.029438068660460549 -0.028617907926455768 0 -0.027241443182785631 -0.029080239975067677 0 -0.026836476497064547 -0.028477455573668618 0 -0.027367773866760536 -0.028669944218709699 0 -0.028833661062332584 -0.028160260024981117 0 -0.029286762931091323 -0.028331330761964799 0 -0.029121125400527439 -0.028525088215616497 0 -0.02838511703567409 -0.029116226587648928 0 -0.027916289461686058 -0.028390947905043859 0 -0.02838511703567409 -0.029116226587648928 0 -0.029641548644954812 -0.029474298306371369 0 -0.026836476497064547 -0.028477455573668618 0 -0.027367773866760536 -0.028669944218709699 0 -0.027557656241140878 -0.028126489706775504 0 -0.029121125400527439 -0.028525088215616497 0 -0.029438068660460549 -0.028617907926455768 0 -0.029415983639961937 -0.028917323889814137 0 -0.027916289461686058 -0.028390947905043859 0 -0.027820884191269601 -0.02843778432842595 0 -0.026836476497064547 -0.028477455573668618 0 -0.026412840645289037 -0.027827374249942798 0 -0.027042498778850819 -0.027544009579383275 0 -0.026836476497064547 -0.028477455573668618 0 -0.027557656241140878 -0.028126489706775504 0 -0.027042498778850819 -0.027544009579383275 0 -0.029767478920799898 -0.028512693540239425 0 -0.029713030040397742 -0.028885452572409841 0 -0.029958797987373633 -0.028821240822282601 0 -0.029767478920799898 -0.028512693540239425 0 -0.029958797987373633 -0.028821240822282601 0 -0.030272919523484348 -0.028709935295607576 0 -0.02991873369287484 -0.02980254121957494 0 -0.032791315849012855 -0.029450105377194398 0 -0.029767478920799898 -0.028512693540239425 0 -0.029438068660460549 -0.028617907926455768 0 -0.029713030040397742 -0.028885452572409841 0 -0.029415983639961937 -0.028917323889814137 0 -0.029713030040397742 -0.028885452572409841 0 -0.029718102457853116 -0.029321891703078275 0 -0.029438068660460549 -0.028617907926455768 0 -0.029415983639961937 -0.028917323889814137 0 -0.029713030040397742 -0.028885452572409841 0 -0.029713030040397742 -0.028885452572409841 0 -0.029958797987373633 -0.028821240822282601 0 -0.029986026832911745 -0.029123735932179186 0 -0.029958797987373633 -0.028821240822282601 0 -0.030265083076470103 -0.02891859888621108 0 -0.029986026832911745 -0.029123735932179186 0 -0.032086521566691478 -0.02826410931633723 0 -0.029691344795111648 -0.028298055019678504 0 -0.032086521566691478 -0.02826410931633723 0 -0.032791315849012855 -0.029450105377194398 0 -0.035838386415241945 -0.029139303739222615 0 -0.035830984568681674 -0.02950022653194373 0 -0.035683947931440786 -0.029434706740780338 0 -0.029958797987373633 -0.028821240822282601 0 -0.030265083076470103 -0.02891859888621108 0 -0.030272919523484348 -0.028709935295607576 0 -0.030763732522837692 -0.03105411187695218 0 -0.031845230266721314 -0.031508819948462052 0 -0.031867679825942755 -0.030446297161852768 0 -0.035897710757164622 -0.029516052293348645 0 -0.035677073225292434 -0.029948761994030092 0 -0.035953749793802121 -0.030604577192088506 0 -0.035897710757164622 -0.029516052293348645 0 -0.035576667096257085 -0.029659384809192429 0 -0.035683947931440786 -0.029434706740780338 0 -0.032791315849012855 -0.029450105377194398 0 -0.03445041568919513 -0.029880865579242431 0 -0.03542399076343293 -0.029879350945494373 0 -0.035221943626478888 -0.029617826197731831 0 -0.035458195051048719 -0.030517578305110211 0 -0.035897710757164622 -0.029516052293348645 0 -0.035677073225292434 -0.029948761994030092 0 -0.035576667096257085 -0.029659384809192429 0 -0.03542399076343293 -0.029879350945494373 0 -0.035677073225292434 -0.029948761994030092 0 -0.03552845889249405 -0.030083040492078269 0 -0.03542399076343293 -0.029879350945494373 0 -0.035576667096257085 -0.029659384809192429 0 -0.035221943626478888 -0.029617826197731831 0 -0.03542399076343293 -0.029879350945494373 0 -0.035677073225292434 -0.029948761994030092 0 -0.035576667096257085 -0.029659384809192429 0 -0.035088607564096715 -0.029393364186253521 0 -0.034378559339139185 -0.028632208402840149 0 -0.035576667096257085 -0.029659384809192429 0 -0.035419300001039281 -0.029457308592849438 0 -0.035221943626478888 -0.029617826197731831 0 -0.035576667096257085 -0.029659384809192429 0 -0.035683947931440786 -0.029434706740780338 0 -0.035442124555652689 -0.029471416808575086 0 -0.035254678135101407 -0.0285057341725879 0 -0.034829048718280152 -0.028852946105869835 0 -0.034517360443975187 -0.027576909198499984 0 -0.034378559339139185 -0.028632208402840149 0 -0.035547350768150153 -0.028954043576925041 0 -0.032186753145812715 -0.027582826663512812 0 -0.032194288343352098 -0.027595027655653557 0 -0.032169652679762448 -0.027606939341984726 0 -0.032155092773587274 -0.027595788543964533 0 -0.032186753145812715 -0.027582826663512812 0 -0.032169652679762448 -0.027606939341984726 0 -0.035547350768150153 -0.028954043576925041 0 -0.034321347611723528 -0.027362040835252805 0 -0.034378559339139185 -0.028632208402840149 0 -0.034321347611723528 -0.027362040835252805 0 -0.035838386415241945 -0.029139303739222615 0 -0.035683947931440786 -0.029434706740780338 0 -0.035442124555652689 -0.029471416808575086 0 -0.032086521566691478 -0.02826410931633723 0 -0.034378559339139185 -0.028632208402840149 0 -0.032194288343352098 -0.027595027655653557 0 -0.032169652679762448 -0.027606939341984726 0 -0.032193013591010677 -0.027612845615520923 0 -0.034321347611723528 -0.027362040835252805 0 -0.035014415293596557 -0.026065443651796718 0 -0.034321347611723528 -0.027362040835252805 0 -0.031717525105306045 -0.026540909383685137 0 -0.037107215787742308 -0.026943311730191769 0 -0.036087874368743618 -0.027177773960040699 0 -0.036438242178942329 -0.026275505527863209 0 -0.033925142157714853 -0.027290478739231714 0 -0.033071137229315324 -0.026214199051087232 0 -0.033596504086096733 -0.025952390702583983 0 -0.037107215787742308 -0.026943311730191769 0 -0.036087874368743618 -0.027177773960040699 0 -0.036461582250949143 -0.027844678034325485 0 -0.036087874368743618 -0.027177773960040699 0 -0.034999575726295654 -0.026936805577535458 0 -0.036438242178942329 -0.026275505527863209 0 -0.036087874368743618 -0.027177773960040699 0 -0.034999575726295654 -0.026936805577535458 0 -0.035606736817547585 -0.0280370223282198 0 -0.034999933101752041 -0.026446157967434714 0 -0.035000042173756379 -0.026936227498196571 0 -0.036530941036154549 -0.026134709031140645 0 -0.035002176979776006 -0.026935750785416008 0 -0.035014415293596557 -0.026065443651796718 0 -0.034999575726295654 -0.026936805577535458 0 -0.035606736817547585 -0.0280370223282198 0 -0.034999416097114565 -0.028909542865028136 0 -0.035606736817547585 -0.0280370223282198 0 -0.036461582250949143 -0.027844678034325485 0 -0.035578098924289536 -0.02966184925068039 0 -0.037538533933292213 -0.028096763076634786 0 -0.036461582250949143 -0.027844678034325485 0 -0.035578098924289536 -0.02966184925068039 0 -0.035547350768150153 -0.028954043576925041 0 -0.035896184722928638 -0.029645252660618848 0 -0.035389496129508202 -0.030319649672254152 0 -0.035437595331523047 -0.030162546217668687 0 -0.035578098924289536 -0.02966184925068039 0 -0.037538533933292213 -0.028096763076634786 0 -0.037107215787742308 -0.026943311730191769 0 -0.036461582250949143 -0.027844678034325485 0 -0.036087874368743618 -0.027177773960040699 0 -0.035606736817547585 -0.0280370223282198 0 -0.036461582250949143 -0.027844678034325485 0 -0.035437595331523047 -0.030162546217668687 0 -0.035363743809807419 -0.030484337321856774 0 -0.035427621907019022 -0.030343122592776717 0 -0.035437595331523047 -0.030162546217668687 0 -0.035578098924289536 -0.02966184925068039 0 -0.035363743809807419 -0.030484337321856774 0 -0.035578098924289536 -0.02966184925068039 0 -0.035238512515178115 -0.030397085018461757 0 -0.035242400020573439 -0.030911300220527425 0 -0.035578098924289536 -0.02966184925068039 0 -0.035363743809807419 -0.030484337321856774 0 -0.035242400020573439 -0.030911300220527425 0 -0.035578098924289536 -0.02966184925068039 0 -0.034999416097114565 -0.028909542865028136 0 -0.035238512515178115 -0.030397085018461757 0 -0.035606736817547585 -0.0280370223282198 0 -0.035578098924289536 -0.02966184925068039 0 -0.034999416097114565 -0.028909542865028136 0 -0.035219570797668978 -0.031712817715861312 0 -0.034999059533420848 -0.030882365768397632 0 -0.035238512515178115 -0.030397085018461757 0 -0.034999059533420848 -0.030882365768397632 0 -0.034999416097114565 -0.028909542865028136 0 -0.035238512515178115 -0.030397085018461757 0 -0.035242400020573439 -0.030911300220527425 0 -0.035079802853045433 -0.03172180244129761 0 -0.035262290547226322 -0.030940868736372047 0 -0.035363743809807419 -0.030484337321856774 0 -0.035242400020573439 -0.030911300220527425 0 -0.035262290547226322 -0.030940868736372047 0 -0.035219570797668978 -0.031712817715861312 0 -0.035238512515178115 -0.030397085018461757 0 -0.035242400020573439 -0.030911300220527425 0 -0.035219570797668978 -0.031712817715861312 0 -0.035242400020573439 -0.030911300220527425 0 -0.035079802853045433 -0.03172180244129761 0 -0.034852236219983887 -0.032808742280325494 0 -0.035079802853045433 -0.03172180244129761 0 -0.0351362217773604 -0.032028210034724496 0 -0.035079802853045433 -0.03172180244129761 0 -0.035262290547226322 -0.030940868736372047 0 -0.0351362217773604 -0.032028210034724496 0 -0.035262290547226322 -0.030940868736372047 0 -0.035506750817758136 -0.030990906726013727 0 -0.0351362217773604 -0.032028210034724496 0 -0.035506750817758136 -0.030990906726013727 0 -0.0351362217773604 -0.032028210034724496 0 -0.03649874009384891 -0.030717589702481327 0 -0.034576726058501747 -0.035202824012063545 0 -0.033794327883363964 -0.032765894994024027 0 -0.034041318006109433 -0.034411953198867702 0 -0.032503439086325789 -0.036939295481858182 0 -0.033789406900726453 -0.039063540437428823 0 -0.034041318006109433 -0.034411953198867702 0 -0.0351362217773604 -0.032028210034724496 0 -0.03649874009384891 -0.030717589702481327 0 -0.032791315849012855 -0.029450105377194398 0 -0.033794327883363964 -0.032765894994024027 0 -0.033794327883363964 -0.032765894994024027 0 -0.035089015443445712 -0.032149682453189748 0 -0.035389496129508202 -0.030319649672254152 0 -0.035427621907019022 -0.030343122592776717 0 -0.035458195051048719 -0.030517578305110211 0 -0.035677073225292434 -0.029948761994030092 0 -0.035953749793802121 -0.030604577192088506 0 -0.03552845889249405 -0.030083040492078269 0 -0.035583530416574645 -0.030335551240781786 0 -0.03552845889249405 -0.030083040492078269 0 -0.035458195051048719 -0.030517578305110211 0 -0.035953749793802121 -0.030604577192088506 0 -0.035583530416574645 -0.030335551240781786 0 -0.03552845889249405 -0.030083040492078269 0 -0.035547350768150153 -0.028954043576925041 0 -0.035477199530382239 -0.03082469261562655 0 -0.03542399076343293 -0.029879350945494373 0 -0.03552845889249405 -0.030083040492078269 0 -0.035458195051048719 -0.030517578305110211 0 -0.035389496129508202 -0.030319649672254152 0 -0.035437595331523047 -0.030162546217668687 0 -0.035427621907019022 -0.030343122592776717 0 -0.035262290547226322 -0.030940868736372047 0 -0.035427621907019022 -0.030343122592776717 0 -0.035458195051048719 -0.030517578305110211 0 -0.035363743809807419 -0.030484337321856774 0 -0.035262290547226322 -0.030940868736372047 0 -0.035427621907019022 -0.030343122592776717 0 -0.035262290547226322 -0.030940868736372047 0 -0.035506750817758136 -0.030990906726013727 0 -0.035458195051048719 -0.030517578305110211 0 -0.035953749793802121 -0.030604577192088506 0 -0.035583530416574645 -0.030335551240781786 0 -0.035688368829091509 -0.03048774648457403 0 -0.035506750817758136 -0.030990906726013727 0 -0.03649874009384891 -0.030717589702481327 0 -0.035688368829091509 -0.03048774648457403 0 -0.035506750817758136 -0.030990906726013727 0 -0.035688368829091509 -0.03048774648457403 0 -0.035458195051048719 -0.030517578305110211 0 -0.035583530416574645 -0.030335551240781786 0 -0.035688368829091509 -0.03048774648457403 0 -0.035458195051048719 -0.030517578305110211 0 -0.018061504671227486 -0.036937926649949451 0 -0.01786886364727441 -0.037416418901950702 0 -0.017328184793624336 -0.037150839739581262 0 -0.01786886364727441 -0.037416418901950702 0 -0.017383165212665752 -0.037656397193001782 0 -0.017328184793624336 -0.037150839739581262 0 -0.018061504671227486 -0.036937926649949451 0 -0.018572671441042764 -0.037487637300714992 0 -0.01786886364727441 -0.037416418901950702 0 -0.018061504671227486 -0.036937926649949451 0 -0.018939197062533344 -0.036826471860242342 0 -0.018572671441042764 -0.037487637300714992 0 -0.018061504671227486 -0.036937926649949451 0 -0.018418793484468638 -0.036475253423670008 0 -0.018939197062533344 -0.036826471860242342 0 -0.018418793484468638 -0.036475253423670008 0 -0.018951181178758592 -0.036273364239585409 0 -0.018939197062533344 -0.036826471860242342 0 -0.018418793484468638 -0.036475253423670008 0 -0.017575167111591121 -0.036000201438469347 0 -0.017417034389176328 -0.036585109516717278 0 -0.018061504671227486 -0.036937926649949451 0 -0.018418793484468638 -0.036475253423670008 0 -0.017417034389176328 -0.036585109516717278 0 -0.018061504671227486 -0.036937926649949451 0 -0.017417034389176328 -0.036585109516717278 0 -0.017328184793624336 -0.037150839739581262 0 -0.018418793484468638 -0.036475253423670008 0 -0.017575167111591121 -0.036000201438469347 0 -0.018297132714896434 -0.035690471761761093 0 -0.018