<?xml version="1.0"?>
<VTKFile type="UnstructuredGrid" version="0.1" byte_order="LittleEndian">
<UnstructuredGrid>
<Piece NumberOfPoints="31898" NumberOfCells="11152">
<Points>
<DataArray type="Float64" NumberOfComponents="3" format="ascii">
-0.5 -0.5 0 -0.47620991077874902 -0.44978878706170539 0 -0.49999999999999473 -0.42132396840504388 0 -0.5 -0.5 0 -0.47160970827802529 -0.4793630013852106 0 -0.47620991077874902 -0.44978878706170539 0 -0.5 -0.5 0 -0.47160970827802529 -0.4793630013852106 0 -0.44860394795025399 -0.5 0 -0.47160970827802529 -0.4793630013852106 0 -0.44860394795025399 -0.5 0 -0.4490820238307246 -0.45820516232899983 0 -0.44860394795025399 -0.5 0 -0.4490820238307246 -0.45820516232899983 0 -0.42881687682924802 -0.47781464288736519 0 -0.4490820238307246 -0.45820516232899983 0 -0.45555437223955858 -0.42914059360647611 0 -0.4490820238307246 -0.45820516232899983 0 -0.45555437223955858 -0.42914059360647611 0 -0.43867285131603428 -0.4271457417558665 0 -0.4490820238307246 -0.45820516232899983 0 -0.43867285131603428 -0.4271457417558665 0 -0.4263356171060747 -0.44269880333887462 0 -0.47160970827802529 -0.4793630013852106 0 -0.4490820238307246 -0.45820516232899983 0 -0.47620991077874902 -0.44978878706170539 0 -0.4490820238307246 -0.45820516232899983 0 -0.47620991077874902 -0.44978878706170539 0 -0.45555437223955858 -0.42914059360647611 0 -0.47620991077874902 -0.44978878706170539 0 -0.48101336032419229 -0.41069999664450008 0 -0.45555437223955858 -0.42914059360647611 0 -0.47620991077874902 -0.44978878706170539 0 -0.49999999999999473 -0.42132396840504388 0 -0.48101336032419229 -0.41069999664450008 0 -0.49999999999999473 -0.42132396840504388 0 -0.48101336032419229 -0.41069999664450008 0 -0.5 -0.393886241813306 0 -0.49999999999999473 -0.42132396840504388 0 -0.48101336032419229 -0.41069999664450008 0 -0.5 -0.393886241813306 0 -0.47854472220918332 -0.38978458738689759 0 -0.48422759779560409 -0.37130120630367158 0 -0.5 -0.393886241813306 0 -0.5 -0.36644851522156802 0 -0.48422759779560409 -0.37130120630367158 0 -0.48101336032419229 -0.41069999664450008 0 -0.5 -0.393886241813306 0 -0.47854472220918332 -0.38978458738689759 0 -0.48101336032419229 -0.41069999664450008 0 -0.47854472220918332 -0.38978458738689759 0 -0.46202672064839212 -0.40007602488395211 0 -0.48101336032419229 -0.41069999664450008 0 -0.46202672064839212 -0.40007602488395211 0 -0.47854472220918332 -0.38978458738689759 0 -0.46725442735267431 -0.37660061361585562 0 -0.46202672064839212 -0.40007602488395211 0 -0.47854472220918332 -0.38978458738689759 0 -0.46725442735267431 -0.37660061361585562 0 -0.48422759779560409 -0.37130120630367158 0 -0.46725442735267431 -0.37660061361585562 0 -0.46202672064839212 -0.40007602488395211 0 -0.46725442735267431 -0.37660061361585562 0 -0.45645674801697989 -0.38644133236760531 0 -0.46202672064839212 -0.40007602488395211 0 -0.46725442735267431 -0.37660061361585562 0 -0.45645674801697989 -0.38644133236760531 0 -0.4540003998136638 -0.37455519391687309 0 -0.45645674801697989 -0.38644133236760531 0 -0.46202672064839212 -0.40007602488395211 0 -0.44257020456291563 -0.38918913383950271 0 -0.46202672064839212 -0.40007602488395211 0 -0.44257020456291563 -0.38918913383950271 0 -0.44727608925983742 -0.41095911152778891 0 -0.46202672064839212 -0.40007602488395211 0 -0.44257020456291563 -0.38918913383950271 0 -0.44257020456291563 -0.38918913383950271 0 -0.44727608925983742 -0.41095911152778891 0 -0.43479358559901082 -0.4041454901736512 0 -0.44257020456291563 -0.38918913383950271 0 -0.4540003998136638 -0.37455519391687309 0 -0.44172858264042247 -0.37082207246888088 0 -0.45645674801697989 -0.38644133236760531 0 -0.44257020456291563 -0.38918913383950271 0 -0.4540003998136638 -0.37455519391687309 0 -0.46202672064839212 -0.40007602488395211 0 -0.45555437223955858 -0.42914059360647611 0 -0.44727608925983742 -0.41095911152778891 0 -0.46202672064839212 -0.40007602488395211 0 -0.45555437223955858 -0.42914059360647611 0 -0.48101336032419229 -0.41069999664450008 0 -0.46202672064839212 -0.40007602488395211 0 -0.45555437223955858 -0.42914059360647611 0 -0.44727608925983742 -0.41095911152778891 0 -0.43867285131603428 -0.4271457417558665 0 -0.43676601469929588 -0.41441201227470881 0 -0.44727608925983742 -0.41095911152778891 0 -0.43676601469929588 -0.41441201227470881 0 -0.43479358559901082 -0.4041454901736512 0 -0.45555437223955858 -0.42914059360647611 0 -0.44727608925983742 -0.41095911152778891 0 -0.43867285131603428 -0.4271457417558665 0 -0.43867285131603428 -0.4271457417558665 0 -0.42681803064840879 -0.42717069814352421 0 -0.4263356171060747 -0.44269880333887462 0 -0.42681803064840879 -0.42717069814352421 0 -0.41531815884496182 -0.42985383783075998 0 -0.4263356171060747 -0.44269880333887462 0 -0.42681803064840879 -0.42717069814352421 0 -0.42624289495594048 -0.42089725947505818 0 -0.42083332353326591 -0.42146747131641099 0 -0.42681803064840879 -0.42717069814352421 0 -0.43096994786351572 -0.41951492446283251 0 -0.42624289495594048 -0.42089725947505818 0 -0.43867285131603428 -0.4271457417558665 0 -0.42681803064840879 -0.42717069814352421 0 -0.43096994786351572 -0.41951492446283251 0 -0.43867285131603428 -0.4271457417558665 0 -0.43676601469929588 -0.41441201227470881 0 -0.43096994786351572 -0.41951492446283251 0 -0.43676601469929588 -0.41441201227470881 0 -0.43096994786351572 -0.41951492446283251 0 -0.42907264086257813 -0.41311715872526122 0 -0.43676601469929588 -0.41441201227470881 0 -0.42907264086257813 -0.41311715872526122 0 -0.43479358559901082 -0.4041454901736512 0 -0.42907264086257813 -0.41311715872526122 0 -0.43479358559901082 -0.4041454901736512 0 -0.42460885511582858 -0.40417321677700252 0 -0.42907264086257813 -0.41311715872526122 0 -0.41997834854398469 -0.41180534796019508 0 -0.42907264086257813 -0.41311715872526122 0 -0.42635027777857132 -0.41543594397746519 0 -0.41997834854398469 -0.41180534796019508 0 -0.42907264086257813 -0.41311715872526122 0 -0.41997834854398469 -0.41180534796019508 0 -0.42460885511582858 -0.40417321677700252 0 -0.42635027777857132 -0.41543594397746519 0 -0.41997834854398469 -0.41180534796019508 0 -0.42635027777857132 -0.41543594397746519 0 -0.42083332353326591 -0.42146747131641099 0 -0.41997834854398469 -0.41180534796019508 0 -0.43096994786351572 -0.41951492446283251 0 -0.42624289495594048 -0.42089725947505818 0 -0.42635027777857132 -0.41543594397746519 0 -0.43096994786351572 -0.41951492446283251 0 -0.42907264086257813 -0.41311715872526122 0 -0.42635027777857132 -0.41543594397746519 0 -0.42624289495594048 -0.42089725947505818 0 -0.42635027777857132 -0.41543594397746519 0 -0.42083332353326591 -0.42146747131641099 0 -0.42083332353326591 -0.42146747131641099 0 -0.41997834854398469 -0.41180534796019508 0 -0.40992282953163789 -0.42011435591993562 0 -0.41997834854398469 -0.41180534796019508 0 -0.39756877647335259 -0.40857286797681719 0 -0.41997834854398469 -0.41180534796019508 0 -0.40992282953163789 -0.42011435591993562 0 -0.39756877647335259 -0.40857286797681719 0 -0.40992282953163789 -0.42011435591993562 0 -0.41531815884496182 -0.42985383783075998 0 -0.39591554026262499 -0.42887225451549271 0 -0.41531815884496182 -0.42985383783075998 0 -0.39591554026262499 -0.42887225451549271 0 -0.41160927495564159 -0.44339431233754628 0 -0.42083332353326591 -0.42146747131641099 0 -0.40992282953163789 -0.42011435591993562 0 -0.41531815884496182 -0.42985383783075998 0 -0.42681803064840879 -0.42717069814352421 0 -0.42083332353326591 -0.42146747131641099 0 -0.41531815884496182 -0.42985383783075998 0 -0.44257020456291563 -0.38918913383950271 0 -0.42311368847744002 -0.37830224279505142 0 -0.42594061475171041 -0.39368797999533162 0 -0.44257020456291563 -0.38918913383950271 0 -0.42311368847744002 -0.37830224279505142 0 -0.44172858264042247 -0.37082207246888088 0 -0.44257020456291563 -0.38918913383950271 0 -0.42311368847744002 -0.37830224279505142 0 -0.42311368847744002 -0.37830224279505142 0 -0.42594061475171041 -0.39368797999533162 0 -0.416587075656149 -0.38785930376960043 0 -0.44257020456291563 -0.38918913383950271 0 -0.42594061475171041 -0.39368797999533162 0 -0.43479358559901082 -0.4041454901736512 0 -0.42594061475171041 -0.39368797999533162 0 -0.43479358559901082 -0.4041454901736512 0 -0.42460885511582858 -0.40417321677700252 0 -0.41997834854398469 -0.41180534796019508 0 -0.41325908582185972 -0.39811010703057192 0 -0.39770572831670092 -0.39911486077581648 0 -0.41997834854398469 -0.41180534796019508 0 -0.39770572831670092 -0.39911486077581648 0 -0.42594061475171041 -0.39368797999533162 0 -0.42460885511582858 -0.40417321677700252 0 -0.41325908582185972 -0.39811010703057192 0 -0.41997834854398469 -0.41180534796019508 0 -0.42460885511582858 -0.40417321677700252 0 -0.41325908582185972 -0.39811010703057192 0 -0.42594061475171041 -0.39368797999533162 0 -0.41325908582185972 -0.39811010703057192 0 -0.416587075656149 -0.38785930376960043 0 -0.41325908582185972 -0.39811010703057192 0 -0.416587075656149 -0.38785930376960043 0 -0.40403491357358612 -0.38133688525744702 0 -0.42311368847744002 -0.37830224279505142 0 -0.40403491357358612 -0.38133688525744702 0 -0.40365717239196519 -0.36741535175059892 0 -0.42311368847744002 -0.37830224279505142 0 -0.416587075656149 -0.38785930376960043 0 -0.40403491357358612 -0.38133688525744702 0 -0.40403491357358612 -0.38133688525744702 0 -0.39190790742475001 -0.38540387676521748 0 -0.39770572831670092 -0.39911486077581648 0 -0.40403491357358612 -0.38133688525744702 0 -0.39190790742475001 -0.38540387676521748 0 -0.3904578797192948 -0.37473938743617019 0 -0.41325908582185972 -0.39811010703057192 0 -0.40403491357358612 -0.38133688525744702 0 -0.39770572831670092 -0.39911486077581648 0 -0.39770572831670092 -0.39911486077581648 0 -0.37543310808941849 -0.38642437359143528 0 -0.39770572831670092 -0.39911486077581648 0 -0.37515920440272033 -0.40534038799344108 0 -0.37543310808941849 -0.38642437359143528 0 -0.39770572831670092 -0.39911486077581648 0 -0.37515920440272033 -0.40534038799344108 0 -0.39756877647335259 -0.40857286797681719
[...]
<PointData Scalars="" Vectors="displacement," Tensors="">
<DataArray type="Float64" Name="displacement" NumberOfComponents="3" format="ascii">
-1.6640226378007353e-06 -0.034996806684353274 0 -0.00017285589840671664 -0.032705782193880359 0 3.4756630765803611e-06 -0.02950078925626981 0 -1.6640226378007353e-06 -0.034996806684353274 0 -0.0001568636518782708 -0.034191280778721987 0 -0.00017285589840671664 -0.032705782193880359 0 -1.6640226378007353e-06 -0.034996806684353274 0 -0.0001568636518782708 -0.034191280778721987 0 7.5919350913180548e-09 -0.0349990964190817 0 -0.0001568636518782708 -0.034191280778721987 0 7.5919350913180548e-09 -0.0349990964190817 0 -9.4692392073161352e-05 -0.034161570397041083 0 7.5919350913180548e-09 -0.0349990964190817 0 -9.4692392073161352e-05 -0.034161570397041083 0 -7.1780375337664832e-05 -0.03473020671818064 0 -0.00012789366890497125 -0.033903526325465165 0 0.00053507288145121035 -0.034473509731384994 0 -9.4692392073161352e-05 -0.034161570397041083 0 0.0003183750001329237 -0.034102875164946138 0 0.00034198606745437706 -0.034235093870471134 0 -9.4692392073161352e-05 -0.034161570397041083 0 0.00034198606745437706 -0.034235093870471134 0 0.00015930351929954246 -0.034473634634195761 0 -0.0001568636518782708 -0.034191280778721987 0 -9.4692392073161352e-05 -0.034161570397041083 0 -0.00017285589840671664 -0.032705782193880359 0 -9.4692392073161352e-05 -0.034161570397041083 0 -0.00017285589840671664 -0.032705782193880359 0 0.00059981624299845966 -0.033330611500833864 0 -0.00017285589840671664 -0.032705782193880359 0 0.0012858449968242511 -0.031592159611067212 0 0.00059981624299845966 -0.033330611500833864 0 -0.00017285589840671664 -0.032705782193880359 0 3.4756630765803611e-06 -0.02950078925626981 0 0.0012858449968242511 -0.031592159611067212 0 1.9702984303629621e-06 -0.029489668851721353 0 0.00030380445308865884 -0.027208159301483452 0 -8.2180420277921378e-07 -0.027572050551949577 0 9.3792047292674707e-08 -0.029492119615473194 0 0.00082991778154663882 -0.029569853940949804 0 -8.2180420277921378e-07 -0.027572050551949577 0 -7.5138766980451045e-05 -0.026493903097150513 0 -0.00016424180646111439 -0.025780484307127725 0 -8.2180420277921378e-07 -0.027572050551949577 0 -2.4927161485656655e-07 -0.025651171481514703 0 -0.00016424180646111439 -0.025780484307127725 0 0.00030380445308865884 -0.027208159301483452 0 -8.2180420277921378e-07 -0.027572050551949577 0 -7.5138766980451045e-05 -0.026493903097150513 0 0.00030380445308865884 -0.027208159301483452 0 -7.5138766980451045e-05 -0.026493903097150513 0 0.00013648839567362812 -0.026248659209637933 0 0.00082991778154663882 -0.029569853940949804 0 0.00029711428045539232 -0.02855384908262391 0 -7.5138766980451045e-05 -0.026493903097150513 0 -0.00020206735398876636 -0.025997972407172019 0 0.00013648839567362812 -0.026248659209637933 0 -7.5138766980451045e-05 -0.026493903097150513 0 -0.00020206735398876636 -0.025997972407172019 0 -0.00016424180646111439 -0.025780484307127725 0 -0.00052508207948661863 -0.022963156789742097 0 0.00029711428045539232 -0.02855384908262391 0 -0.00046313757302974314 -0.02087103026595857 0 -0.0012129981225253586 -0.021684541516264099 0 -0.0021942697763695541 -0.021323124217519678 0 -0.00046313757302974314 -0.02087103026595857 0 -0.0012129981225253586 -0.021684541516264099 0 -0.00038418636350613124 -0.021809175396039361 0 -0.0012129981225253586 -0.021684541516264099 0 -0.0021942697763695541 -0.021323124217519678 0 -0.0014406162043788344 -0.022708915067310566 0 0.00030366245406117598 -0.034198661095624257 0 0.00010818039852307523 -0.034152003350643716 0 0.0003595009031268795 -0.034170711521652956 0 0.00029711428045539232 -0.02855384908262391 0 -0.00084704057841280276 -0.028227857824535931 0 0.00010818039852307523 -0.034152003350643716 0 0.0003595009031268795 -0.034170711521652956 0 0.00031674836350242347 -0.034102935122041246 0 -0.0014406162043788344 -0.022708915067310566 0 -0.00038418636350613124 -0.021809175396039361 0 -0.00012122335328901356 -0.022740851065536853 0 -0.0012129981225253586 -0.021684541516264099 0 -0.0014406162043788344 -0.022708915067310566 0 -0.00038418636350613124 -0.021809175396039361 0 0.00030366245406117598 -0.034198661095624257 0 0.0003183750001329237 -0.034102875164946138 0 0.0003595009031268795 -0.034170711521652956 0 0.00029711428045539232 -0.02855384908262391 0 0.00053507288145121035 -0.034473509731384994 0 0.0012858449968242511 -0.031592159611067212 0 0.0019703645477668441 -0.032720959331963791 0 0.00059981624299845966 -0.033330611500833864 0 0.0003595009031268795 -0.034170711521652956 0 0.00034198606745437706 -0.034235093870471134 0 0.00040045982874209072 -0.03417462706795938 0 0.0003595009031268795 -0.034170711521652956 0 0.00040045982874209072 -0.03417462706795938 0 0.00031674836350242347 -0.034102935122041246 0 0.0003183750001329237 -0.034102875164946138 0 0.0003595009031268795 -0.034170711521652956 0 0.00034198606745437706 -0.034235093870471134 0 0.00034198606745437706 -0.034235093870471134 0 0.00031760550831087624 -0.034361929666941085 0 0.00015930351929954246 -0.034473634634195761 0 0.00031760550831087624 -0.034361929666941085 0 0.00028383084090993082 -0.034534443866913067 0 0.00015930351929954246 -0.034473634634195761 0 0.00031760550831087624 -0.034361929666941085 0 0.00037866098516301769 -0.034319642739815442 0 0.00036960016322453842 -0.034420982337825985 0 0.00031760550831087624 -0.034361929666941085 0 0.00039247132319663333 -0.03423375221019901 0 0.00037866098516301769 -0.034319642739815442 0 0.00034198606745437706 -0.034235093870471134 0 0.00031760550831087624 -0.034361929666941085 0 0.00039247132319663333 -0.03423375221019901 0 0.00034198606745437706 -0.034235093870471134 0 0.00040045982874209072 -0.03417462706795938 0 0.00039247132319663333 -0.03423375221019901 0 0.00040045982874209072 -0.03417462706795938 0 0.00039247132319663333 -0.03423375221019901 0 0.0004807556436595113 -0.034139440192413203 0 0.00040045982874209072 -0.03417462706795938 0 0.0004807556436595113 -0.034139440192413203 0 0.00031674836350242347 -0.034102935122041246 0 0.0004807556436595113 -0.034139440192413203 0 0.00031674836350242347 -0.034102935122041246 0 0.00032855383529397248 -0.033904243699035663 0 0.00053263565298554633 -0.034128376023842381 0 0.00056359964122481264 -0.03413975948734483 0 0.0004807556436595113 -0.034139440192413203 0 0.00043822756163884472 -0.034266412064809383 0 0.00058865651877055604 -0.034506122517219198 0 0.0004807556436595113 -0.034139440192413203 0 0.00054499479282264405 -0.033779854614141784 0 0.00032855383529397248 -0.033904243699035663 0 0.00055641559368086629 -0.034265243730272878 0 0.00056359964122481264 -0.03413975948734483 0 0.00043822756163884472 -0.034266412064809383 0 0.00036960016322453842 -0.034420982337825985 0 0.00050966037750417483 -0.034428884806398594 0 0.00039247132319663333 -0.03423375221019901 0 0.00037866098516301769 -0.034319642739815442 0 0.00043822756163884472 -0.034266412064809383 0 0.00039247132319663333 -0.03423375221019901 0 0.0004807556436595113 -0.034139440192413203 0 0.00043822756163884472 -0.034266412064809383 0 0.00037866098516301769 -0.034319642739815442 0 0.00043822756163884472 -0.034266412064809383 0 0.00036960016322453842 -0.034420982337825985 0 0.00036960016322453842 -0.034420982337825985 0 0.00050966037750417483 -0.034428884806398594 0 0.0003907087558668823 -0.034576191245671885 0 0.00056359964122481264 -0.03413975948734483 0 0.00059764109468249166 -0.0342463605866739 0 0.00050966037750417483 -0.034428884806398594 0 0.0003907087558668823 -0.034576191245671885 0 0.00051472471654350437 -0.034716315317587121 0 0.0003907087558668823 -0.034576191245671885 0 0.00028383084090993082 -0.034534443866913067 0 0.00029772651000644284 -0.034738470027952842 0 0.00028383084090993082 -0.034534443866913067 0 0.00029772651000644284 -0.034738470027952842 0 0.00015732874520517056 -0.034626095219878424 0 0.00036960016322453842 -0.034420982337825985 0 0.0003907087558668823 -0.034576191245671885 0 0.00028383084090993082 -0.034534443866913067 0 0.00031760550831087624 -0.034361929666941085 0 0.00036960016322453842 -0.034420982337825985 0 0.00028383084090993082 -0.034534443866913067 0 0.00010818039852307523 -0.034152003350643716 0 -0.00029326108627607207 -0.033775026359251517 0 0.00011190661195734258 -0.033880606043216778 0 -0.0014406162043788344 -0.022708915067310566 0 -0.0006844614130035833 -0.024185877270052173 0 -0.00012122335328901356 -0.022740851065536853 0 -0.00084704057841280276 -0.028227857824535931 0 -0.0004771124315153075 -0.02894030881921876 0 -0.00029326108627607207 -0.033775026359251517 0 0.00011190661195734258 -0.033880606043216778 0 -5.1065561548000665e-05 -0.033606913084060636 0 0.00010818039852307523 -0.034152003350643716 0 0.00011190661195734258 -0.033880606043216778 0 0.00031674836350242347 -0.034102935122041246 0 0.00011190661195734258 -0.033880606043216778 0 0.00031674836350242347 -0.034102935122041246 0 0.00032855383529397248 -0.033904243699035663 0 0.00054499479282264405 -0.033779854614141784 0 0.00021356123637320993 -0.033540398591890085 0 0.00027795462928765271 -0.033050153667252294 0 0.00056359964122481264 -0.03413975948734483 0 0.00031297125619655361 -0.0334238927951135 0 0.00011190661195734258 -0.033880606043216778 0 0.00032855383529397248 -0.033904243699035663 0 0.00021356123637320993 -0.033540398591890085 0 0.00054499479282264405 -0.033779854614141784 0 0.00032855383529397248 -0.033904243699035663 0 0.00021356123637320993 -0.033540398591890085 0 0.00011190661195734258 -0.033880606043216778 0 0.00021356123637320993 -0.033540398591890085 0 -5.1065561548000665e-05 -0.033606913084060636 0 0.00021356123637320993 -0.033540398591890085 0 -5.1065561548000665e-05 -0.033606913084060636 0 -0.00024257574469851962 -0.033223088611999844 0 -0.00029326108627607207 -0.033775026359251517 0 -0.00024257574469851962 -0.033223088611999844 0 -0.00064995326498450731 -0.033185926388249826 0 -0.00029326108627607207 -0.033775026359251517 0 -5.1065561548000665e-05 -0.033606913084060636 0 -0.00024257574469851962 -0.033223088611999844 0 -0.00024257574469851962 -0.033223088611999844 0 -0.00012344053524543274 -0.032844940815285474 0 0.00027795462928765271 -0.033050153667252294 0 -0.00024257574469851962 -0.033223088611999844 0 -0.00012344053524543274 -0.032844940815285474 0 -0.00045078354654772213 -0.032783183159763904 0 0.00021356123637320993 -0.033540398591890085 0 -0.00024257574469851962 -0.033223088611999844 0 0.00027795462928765271 -0.033050153667252294 0 0.00031297125619655361 -0.0334238927951135 0 0.00038705220165004338 -0.032017943682170126 0 0.00040196397640776597 -0.033638376214902711 0 0.00055920193509627261 -0.033071606929336375 0 8.4094407657706987e-05 -0.03307140283791532 0 0.00040196397640776597 -0.033638376214902711 0 0.00055920193509627261 -0.033071606929336375 0 0.00063880724700362222 -0.033636723350481255 0 0.00043277791744212696 -0.033817371886811866 0 0.00038705220165004338 -0.032017943682170126 0 -8.1822121539923339e-05 -0.032317022423382115 0 -0.00045078354654772213 -0.032783183159763904 0 -0.00061920867576901746 -0.032306627774223051 0 -0.00012344053524543274 -0.032844940815285474 0 -8.1822121539923339e-05 -0.032317022423382115 0 -0.00045078354654772213 -0.032783183159763904 0 0.00038705220165004338 -0.032017943682170126 0 -7.9535389481262119e-05 -0.031108280883986268 0 -0.00012344053524543274 -0.032844940815285474 0 0.00027795462928765271 -0.033050153667252294 0 -8.1822121539923339e-05 -0.032317022423382115 0 0.00071793004013869909 -0.03419711654210851 0 0.00040196397640776597 -0.033638376214902711 0 0.00063880724700362222 -0.033636723350481255 0 0.0003907087558668823 -0.034576191245671885 0 0.00029772651000644284 -0.034738470027952842 0 0.00051472471654350437 -0.034716315317587121 0 0.00053801481587395462 -0.034932561149497249 0 0.00029772651000644284 -0.034738470027952842 0 0.00051472471654350437 -0.034716315317587121 0 0.00043277791744212696 -0.033817371886811866 0 0.00059764109468249166 -0.0342463605866739 0 0.00053801481587395462 -0.034932561149497249 0 0.00029772651000644284 -0.034738470027952842 0 0.00023731157698747121 -0.034937490626026461 0 0.00029772651000644284 -0.034738470027952842 0 0.00013754630124337435 -0.034772349940795283 0 0.00023731157698747121 -0.034937490626026461 0 0.00013754630124337435 -0.034772349940795283 0 -2.8062479671929943e-05 -0.034938157401106472 0 0.00023731157698747121 -0.034937490626026461 0 0.00029772651000644284 -0.034738470027952842 0 0.00013754630124337435 -0.034772349940795283 0 0.00015732874520517056 -0.034626095219878424 0 0.00013754630124337435 -0.034772349940795283 0 4.5870380440178973e-05 -0.034684712109164823 0 0.00015732874520517056 -0.034626095219878424 0 3.1509004641256413e-05 -0.034796323228292264 0 -2.7986864742652531e-05 -0.03492704956066181 0 -3.2684725180424229e-05 -0.034782961515339175 0 1.2404599004119655e-05 -0.034982355316286247 0 9.7624635912808192e-06 -0.034992232479221466 0 1.0242244867465327e-06 -0.034992620949919714 0 4.3219224833303987e-05 -0.034819054475180772 0 -2.4079720868644472e-05 -0.034970867097297853 0 4.3219224833303987e-05 -0.034819054475180772 0 4.4468469058204761e-05 -0.034810165017777041 0 4.3219224833303987e-05 -0.034819054475180772 0 6.379601060805358e-06 -0.034914172140204675 0 0.00013754630124337435 -0.034772349940795283 0 4.5870380440178973e-05 -0.034684712109164823 0 8.358949506221746e-06 -0.034807916376120532 0 0.00013754630124337435 -0.034772349940795283 0 8.358949506221746e-06 -0.034807916376120532 0 -2.8062479671929943e-05 -0.034938157401106472 0 6.379601060805358e-06 -0.034914172140204675 0 2.1586842612899491e-05 -0.034897343034709122 0 9.7624635912808192e-06 -0.034992232479221466 0 4.3187202644111393e-06 -0.034995220736233054 0 7.052573694830125e-06 -0.034999021000870933 0 4.3187202644111393e-06 -0.034995220736233054 0 1.0242244867465327e-06 -0.034992620949919714 0 1.4218250601263906e-06 -0.03499878848044749 0 1.0242244867465327e-06 -0.034992620949919714 0 1.3091498886102325e-07 -0.034999480227626389 0 1.4218250601263906e-06 -0.03499878848044749 0 4.3187202644111393e-06 -0.034995220736233054 0 1.4218250601263906e-06 -0.03499878848044749 0 7.052573694830125e-06 -0.034999021000870933 0 9.7624635912808192e-06 -0.034992232479221466 0 4.3187202644111393e-06 -0.034995220736233054 0 1.0242244867465327e-06 -0.034992620949919714 0 -5.4021299889139793e-09 -0.034999981253469696 0 -2.4079720868644472e-05 -0.034970867097297853 0 -4.4111995981315931e-09 -0.034999993149836948 0 1.0242244867465327e-06 -0.034992620949919714 0 1.3091498886102325e-07 -0.034999480227626389 0 5.7485308284323874e-08 -0.034999980575258119 0 -2.7986864742652531e-05 -0.03492704956066181 0 -1.5022044392940375e-07 -0.034999816672064324 0 -2.7986864742652531e-05 -0.03492704956066181 0 -3.2684725180424229e-05 -0.034782961515339175 0 -1.5022044392940375e-07 -0.034999816672064324 0 -3.2684725180424229e-05 -0.034782961515339175 0 -1.5022044392940375e-07 -0.034999816672064324 0 -7.1780375337664832e-05 -0.03473020671818064 0 7.5919350913180548e-09 -0.0349990964190817 0 -1.5022044392940375e-07 -0.034999816672064324 0 -7.1780375337664832e-05 -0.03473020671818064 0 -3.2684725180424229e-05 -0.034782961515339175 0 -7.1780375337664832e-05 -0.03473020671818064 0 -1.3687653284636654e-05 -0.034583426744044521 0 -9.4692392073161352e-05 -0.034161570397041083 0 -7.1780375337664832e-05 -0.03473020671818064 0 -1.3687653284636654e-05 -0.034583426744044521 0 -9.4692392073161352e-05 -0.034161570397041083 0 -1.3687653284636654e-05 -0.034583426744044521 0 0.00015930351929954246 -0.034473634634195761 0 -1.3687653284636654e-05 -0.034583426744044521 0 0.00015930351929954246 -0.034473634634195761 0 5.5913732412134167e-05 -0.034646917613954824 0 0.00015930351929954246 -0.034473634634195761 0 0.00015732874520517056 -0.034626095219878424 0 5.5913732412134167e-05 -0.034646917613954824 0 0.00028383084090993082 -0.034534443866913067 0 0.00015930351929954246 -0.034473634634195761 0 0.00015732874520517056 -0.034626095219878424 0 3.3681553688184641e-05 -0.034806986744825769 0 0.00015732874520517056 -0.034626095219878424 0 3.7987460913509427e-05 -0.034769170039765575 0 0.00015732874520517056 -0.034626095219878424 0 3.7987460913509427e-05 -0.034769170039765575 0 5.5913732412134167e-05 -0.034646917613954824 0 4.3219224833303987e-05 -0.034819054475180772 0 0.00014923393123789103 -0.034654978052609448 0 -3.2684725180424229e-05 -0.034782961515339175 0 3.7987460913509427e-05 -0.034769170039765575 0 5.5913732412134167e-05 -0.034646917613954824 0 3.1509004641256413e-05 -0.034796323228292264 0 -3.2684725180424229e-05 -0.034782961515339175 0 3.7987460913509427e-05 -0.034769170039765575 0 -3.2684725180424229e-05 -0.034782961515339175 0 -1.3687653284636654e-05 -0.034583426744044521 0 5.5913732412134167e-05 -0.034646917613954824 0 0.0003192308605995172 -0.018654933035012117 0 0.0012750246393983793 -0.017256890404031645 0 0.00058666146608403588 -0.017372480636129835 0 0.00067602016394166281 -0.0166833914277673 0 0.00034825757433038591 -0.017137393705180772 0 -8.2825611769968838e-05 -0.019674665587145021 0 0.00021671452499255058 -0.019610757651076619 0 0.00015198744227053751 -0.019761678230002803 0 -8.2825611769968838e-05 -0.019674665587145021 0 -2.7780556228413438e-05 -0.019723019292896844 0 0.00015198744227053751 -0.019761678230002803 0 -8.2825611769968838e-05 -0.019674665587145021 0 -4.6663841068984658e-05 -0.019635030906451495 0 -2.7780556228413438e-05 -0.019723019292896844 0 -8.2825611769968838e-05 -0.019674665587145021 0 -7.1724096862686146e-05 -0.019356000574239664 0 -0.00015584745082414234 -0.019716394474389328 0 -8.2825611769968838e-05 -0.019674665587145021 0 -7.1724096862686146e-05 -0.019356000574239664 0 0.00021671452499255058 -0.019610757651076619 0 0.0003192308605995172 -0.018654933035012117 0 0.00024874276021598992 -0.018379923108292558 0 -7.1724096862686146e-05 -0.019356000574239664 0 0.00021671452499255058 -0.019610757651076619 0 0.00019493701632601178 -0.018487675213186821 0 0.00058666146608403588 -0.017372480636129835 0 0.00019493701632601178 -0.018487675213186821 0 3.9167309585071391e-05 -0.017714710105541813 0 0.00019493701632601178 -0.018487675213186821 0 -3.0131876416971773e-07 -0.017968574099465996 0 -9.6918521470822018e-05 -0.019274108416432182 0 0.00019493701632601178 -0.018487675213186821 0 -3.0131876416971773e-07 -0.017968574099465996 0 -1.8750754474946936e-05 -0.017547132646470665 0 -3.0131876416971773e-07 -0.017968574099465996 0 -9.6918521470822018e-05 -0.019274108416432182 0 -3.3082808476260705e-07 -0.019889493797224631 0 -7.1724096862686146e-05 -0.019356000574239664 0 0.00019493701632601178 -0.018487675213186821 0 -9.6918521470822018e-05 -0.019274108416432182 0 -7.1724096862686146e-05 -0.019356000574239664 0 -9.6918521470822018e-05 -0.019274108416432182 0 -0.00015584745082414234 -0.019716394474389328 0 -0.00015584745082414234 -0.019716394474389328 0 -6.3239387346785935e-05 -0.02029745252709865 0 -7.613235842751638e-06 -0.0202278681972035 0 -9.6918521470822018e-05 -0.019274108416432182 0 -0.00015584745082414234 -0.019716394474389328 0 -6.3239387346785935e-05 -0.02029745252709865 0 -3.3082808476260705e-07 -0.019889493797224631 0 -6.3239387346785935e-05 -0.02029745252709865 0 4.5440734853707989e-07 -0.0218100020691246 0 -9.6918521470822018e-05 -0.019274108416432182 0 -3.3082808476260705e-07 -0.019889493797224631 0 -6.3239387346785935e-05 -0.02029745252709865 0 -6.3239387346785935e-05 -0.02029745252709865 0 4.5440734853707989e-07 -0.0218100020691246 0 0.00015497798219883975 -0.021093859511570254 0 0.00015497798219883975 -0.021093859511570254 0 -7.613235842751638e-06 -0.0202278681972035 0 0.00055927157129869256 -0.020514073158366352 0 -6.3239387346785935e-05 -0.02029745252709865 0 0.00015497798219883975 -0.021093859511570254 0 -7.613235842751638e-06 -0.0202278681972035 0 -7.613235842751638e-06 -0.0202278681972035 0 0.00026795791815135468 -0.020044014999546205 0 0.00055927157129869256 -0.020514073158366352 0 0.00026795791815135468 -0.02004401499954