<?xml version="1.0"?>
<VTKFile type="UnstructuredGrid" version="0.1" byte_order="LittleEndian">
<UnstructuredGrid>
<Piece NumberOfPoints="31898" NumberOfCells="11152">
<Points>
<DataArray type="Float64" NumberOfComponents="3" format="ascii">
-0.5 -0.5 0 -0.47620991077874902 -0.44978878706170539 0 -0.49999999999999473 -0.42132396840504388 0 -0.5 -0.5 0 -0.47160970827802529 -0.4793630013852106 0 -0.47620991077874902 -0.44978878706170539 0 -0.5 -0.5 0 -0.47160970827802529 -0.4793630013852106 0 -0.44860394795025399 -0.5 0 -0.47160970827802529 -0.4793630013852106 0 -0.44860394795025399 -0.5 0 -0.4490820238307246 -0.45820516232899983 0 -0.44860394795025399 -0.5 0 -0.4490820238307246 -0.45820516232899983 0 -0.42881687682924802 -0.47781464288736519 0 -0.4490820238307246 -0.45820516232899983 0 -0.45555437223955858 -0.42914059360647611 0 -0.4490820238307246 -0.45820516232899983 0 -0.45555437223955858 -0.42914059360647611 0 -0.43867285131603428 -0.4271457417558665 0 -0.4490820238307246 -0.45820516232899983 0 -0.43867285131603428 -0.4271457417558665 0 -0.4263356171060747 -0.44269880333887462 0 -0.47160970827802529 -0.4793630013852106 0 -0.4490820238307246 -0.45820516232899983 0 -0.47620991077874902 -0.44978878706170539 0 -0.4490820238307246 -0.45820516232899983 0 -0.47620991077874902 -0.44978878706170539 0 -0.45555437223955858 -0.42914059360647611 0 -0.47620991077874902 -0.44978878706170539 0 -0.48101336032419229 -0.41069999664450008 0 -0.45555437223955858 -0.42914059360647611 0 -0.47620991077874902 -0.44978878706170539 0 -0.49999999999999473 -0.42132396840504388 0 -0.48101336032419229 -0.41069999664450008 0 -0.49999999999999473 -0.42132396840504388 0 -0.48101336032419229 -0.41069999664450008 0 -0.5 -0.393886241813306 0 -0.49999999999999473 -0.42132396840504388 0 -0.48101336032419229 -0.41069999664450008 0 -0.5 -0.393886241813306 0 -0.47854472220918332 -0.38978458738689759 0 -0.48422759779560409 -0.37130120630367158 0 -0.5 -0.393886241813306 0 -0.5 -0.36644851522156802 0 -0.48422759779560409 -0.37130120630367158 0 -0.48101336032419229 -0.41069999664450008 0 -0.5 -0.393886241813306 0 -0.47854472220918332 -0.38978458738689759 0 -0.48101336032419229 -0.41069999664450008 0 -0.47854472220918332 -0.38978458738689759 0 -0.46202672064839212 -0.40007602488395211 0 -0.48101336032419229 -0.41069999664450008 0 -0.46202672064839212 -0.40007602488395211 0 -0.47854472220918332 -0.38978458738689759 0 -0.46725442735267431 -0.37660061361585562 0 -0.46202672064839212 -0.40007602488395211 0 -0.47854472220918332 -0.38978458738689759 0 -0.46725442735267431 -0.37660061361585562 0 -0.48422759779560409 -0.37130120630367158 0 -0.46725442735267431 -0.37660061361585562 0 -0.46202672064839212 -0.40007602488395211 0 -0.46725442735267431 -0.37660061361585562 0 -0.45645674801697989 -0.38644133236760531 0 -0.46202672064839212 -0.40007602488395211 0 -0.46725442735267431 -0.37660061361585562 0 -0.45645674801697989 -0.38644133236760531 0 -0.4540003998136638 -0.37455519391687309 0 -0.45645674801697989 -0.38644133236760531 0 -0.46202672064839212 -0.40007602488395211 0 -0.44257020456291563 -0.38918913383950271 0 -0.46202672064839212 -0.40007602488395211 0 -0.44257020456291563 -0.38918913383950271 0 -0.44727608925983742 -0.41095911152778891 0 -0.46202672064839212 -0.40007602488395211 0 -0.44257020456291563 -0.38918913383950271 0 -0.44257020456291563 -0.38918913383950271 0 -0.44727608925983742 -0.41095911152778891 0 -0.43479358559901082 -0.4041454901736512 0 -0.44257020456291563 -0.38918913383950271 0 -0.4540003998136638 -0.37455519391687309 0 -0.44172858264042247 -0.37082207246888088 0 -0.45645674801697989 -0.38644133236760531 0 -0.44257020456291563 -0.38918913383950271 0 -0.4540003998136638 -0.37455519391687309 0 -0.46202672064839212 -0.40007602488395211 0 -0.45555437223955858 -0.42914059360647611 0 -0.44727608925983742 -0.41095911152778891 0 -0.46202672064839212 -0.40007602488395211 0 -0.45555437223955858 -0.42914059360647611 0 -0.48101336032419229 -0.41069999664450008 0 -0.46202672064839212 -0.40007602488395211 0 -0.45555437223955858 -0.42914059360647611 0 -0.44727608925983742 -0.41095911152778891 0 -0.43867285131603428 -0.4271457417558665 0 -0.43676601469929588 -0.41441201227470881 0 -0.44727608925983742 -0.41095911152778891 0 -0.43676601469929588 -0.41441201227470881 0 -0.43479358559901082 -0.4041454901736512 0 -0.45555437223955858 -0.42914059360647611 0 -0.44727608925983742 -0.41095911152778891 0 -0.43867285131603428 -0.4271457417558665 0 -0.43867285131603428 -0.4271457417558665 0 -0.42681803064840879 -0.42717069814352421 0 -0.4263356171060747 -0.44269880333887462 0 -0.42681803064840879 -0.42717069814352421 0 -0.41531815884496182 -0.42985383783075998 0 -0.4263356171060747 -0.44269880333887462 0 -0.42681803064840879 -0.42717069814352421 0 -0.42624289495594048 -0.42089725947505818 0 -0.42083332353326591 -0.42146747131641099 0 -0.42681803064840879 -0.42717069814352421 0 -0.43096994786351572 -0.41951492446283251 0 -0.42624289495594048 -0.42089725947505818 0 -0.43867285131603428 -0.4271457417558665 0 -0.42681803064840879 -0.42717069814352421 0 -0.43096994786351572 -0.41951492446283251 0 -0.43867285131603428 -0.4271457417558665 0 -0.43676601469929588 -0.41441201227470881 0 -0.43096994786351572 -0.41951492446283251 0 -0.43676601469929588 -0.41441201227470881 0 -0.43096994786351572 -0.41951492446283251 0 -0.42907264086257813 -0.41311715872526122 0 -0.43676601469929588 -0.41441201227470881 0 -0.42907264086257813 -0.41311715872526122 0 -0.43479358559901082 -0.4041454901736512 0 -0.42907264086257813 -0.41311715872526122 0 -0.43479358559901082 -0.4041454901736512 0 -0.42460885511582858 -0.40417321677700252 0 -0.42907264086257813 -0.41311715872526122 0 -0.41997834854398469 -0.41180534796019508 0 -0.42907264086257813 -0.41311715872526122 0 -0.42635027777857132 -0.41543594397746519 0 -0.41997834854398469 -0.41180534796019508 0 -0.42907264086257813 -0.41311715872526122 0 -0.41997834854398469 -0.41180534796019508 0 -0.42460885511582858 -0.40417321677700252 0 -0.42635027777857132 -0.41543594397746519 0 -0.41997834854398469 -0.41180534796019508 0 -0.42635027777857132 -0.41543594397746519 0 -0.42083332353326591 -0.42146747131641099 0 -0.41997834854398469 -0.41180534796019508 0 -0.43096994786351572 -0.41951492446283251 0 -0.42624289495594048 -0.42089725947505818 0 -0.42635027777857132 -0.41543594397746519 0 -0.43096994786351572 -0.41951492446283251 0 -0.42907264086257813 -0.41311715872526122 0 -0.42635027777857132 -0.41543594397746519 0 -0.42624289495594048 -0.42089725947505818 0 -0.42635027777857132 -0.41543594397746519 0 -0.42083332353326591 -0.42146747131641099 0 -0.42083332353326591 -0.42146747131641099 0 -0.41997834854398469 -0.41180534796019508 0 -0.40992282953163789 -0.42011435591993562 0 -0.41997834854398469 -0.41180534796019508 0 -0.39756877647335259 -0.40857286797681719 0 -0.41997834854398469 -0.41180534796019508 0 -0.40992282953163789 -0.42011435591993562 0 -0.39756877647335259 -0.40857286797681719 0 -0.40992282953163789 -0.42011435591993562 0 -0.41531815884496182 -0.42985383783075998 0 -0.39591554026262499 -0.42887225451549271 0 -0.41531815884496182 -0.42985383783075998 0 -0.39591554026262499 -0.42887225451549271 0 -0.41160927495564159 -0.44339431233754628 0 -0.42083332353326591 -0.42146747131641099 0 -0.40992282953163789 -0.42011435591993562 0 -0.41531815884496182 -0.42985383783075998 0 -0.42681803064840879 -0.42717069814352421 0 -0.42083332353326591 -0.42146747131641099 0 -0.41531815884496182 -0.42985383783075998 0 -0.44257020456291563 -0.38918913383950271 0 -0.42311368847744002 -0.37830224279505142 0 -0.42594061475171041 -0.39368797999533162 0 -0.44257020456291563 -0.38918913383950271 0 -0.42311368847744002 -0.37830224279505142 0 -0.44172858264042247 -0.37082207246888088 0 -0.44257020456291563 -0.38918913383950271 0 -0.42311368847744002 -0.37830224279505142 0 -0.42311368847744002 -0.37830224279505142 0 -0.42594061475171041 -0.39368797999533162 0 -0.416587075656149 -0.38785930376960043 0 -0.44257020456291563 -0.38918913383950271 0 -0.42594061475171041 -0.39368797999533162 0 -0.43479358559901082 -0.4041454901736512 0 -0.42594061475171041 -0.39368797999533162 0 -0.43479358559901082 -0.4041454901736512 0 -0.42460885511582858 -0.40417321677700252 0 -0.41997834854398469 -0.41180534796019508 0 -0.41325908582185972 -0.39811010703057192 0 -0.39770572831670092 -0.39911486077581648 0 -0.41997834854398469 -0.41180534796019508 0 -0.39770572831670092 -0.39911486077581648 0 -0.42594061475171041 -0.39368797999533162 0 -0.42460885511582858 -0.40417321677700252 0 -0.41325908582185972 -0.39811010703057192 0 -0.41997834854398469 -0.41180534796019508 0 -0.42460885511582858 -0.40417321677700252 0 -0.41325908582185972 -0.39811010703057192 0 -0.42594061475171041 -0.39368797999533162 0 -0.41325908582185972 -0.39811010703057192 0 -0.416587075656149 -0.38785930376960043 0 -0.41325908582185972 -0.39811010703057192 0 -0.416587075656149 -0.38785930376960043 0 -0.40403491357358612 -0.38133688525744702 0 -0.42311368847744002 -0.37830224279505142 0 -0.40403491357358612 -0.38133688525744702 0 -0.40365717239196519 -0.36741535175059892 0 -0.42311368847744002 -0.37830224279505142 0 -0.416587075656149 -0.38785930376960043 0 -0.40403491357358612 -0.38133688525744702 0 -0.40403491357358612 -0.38133688525744702 0 -0.39190790742475001 -0.38540387676521748 0 -0.39770572831670092 -0.39911486077581648 0 -0.40403491357358612 -0.38133688525744702 0 -0.39190790742475001 -0.38540387676521748 0 -0.3904578797192948 -0.37473938743617019 0 -0.41325908582185972 -0.39811010703057192 0 -0.40403491357358612 -0.38133688525744702 0 -0.39770572831670092 -0.39911486077581648 0 -0.39770572831670092 -0.39911486077581648 0 -0.37543310808941849 -0.38642437359143528 0 -0.39770572831670092 -0.39911486077581648 0 -0.37515920440272033 -0.40534038799344108 0 -0.37543310808941849 -0.38642437359143528 0 -0.39770572831670092 -0.39911486077581648 0 -0.37515920440272033 -0.40534038799344108 0 -0.39756877647335259 -0.40857286797681719
[...]
<PointData Scalars="" Vectors="displacement," Tensors="">
<DataArray type="Float64" Name="displacement" NumberOfComponents="3" format="ascii">
-0.034997368861381002 -0.034997992516254503 0 -0.032607476116346026 -0.034342649391928111 0 -0.029503373654496481 -0.034995323605458213 0 -0.034997368861381002 -0.034997992516254503 0 -0.034404756705862079 -0.033685722623377802 0 -0.032607476116346026 -0.034342649391928111 0 -0.034997368861381002 -0.034997992516254503 0 -0.034404756705862079 -0.033685722623377802 0 -0.034998034344868319 -0.031405169800196128 0 -0.034404756705862079 -0.033685722623377802 0 -0.034998034344868319 -0.031405169800196128 0 -0.034553971598975206 -0.033084929166252615 0 -0.034998034344868319 -0.031405169800196128 0 -0.034553971598975206 -0.033084929166252615 0 -0.035064876494285108 -0.030775266679242765 0 -0.034100718036896481 -0.033216405127964831 0 -0.034974153535596776 -0.033684539767803293 0 -0.034553971598975206 -0.033084929166252615 0 -0.036858260563015263 -0.03296629841056594 0 -0.0370624067915378 -0.031921960793821723 0 -0.034553971598975206 -0.033084929166252615 0 -0.0370624067915378 -0.031921960793821723 0 -0.036172384668483673 -0.030995722504489752 0 -0.034404756705862079 -0.033685722623377802 0 -0.034553971598975206 -0.033084929166252615 0 -0.032607476116346026 -0.034342649391928111 0 -0.034553971598975206 -0.033084929166252615 0 -0.032607476116346026 -0.034342649391928111 0 -0.031883481152766499 -0.034878565259569408 0 -0.032607476116346026 -0.034342649391928111 0 -0.030419192665118402 -0.034596225324865247 0 -0.031883481152766499 -0.034878565259569408 0 -0.032607476116346026 -0.034342649391928111 0 -0.029503373654496481 -0.034995323605458213 0 -0.030419192665118402 -0.034596225324865247 0 -0.029492656092652985 -0.034999989286979949 0 -0.028751682984349412 -0.036307489245202246 0 -0.027572057376183193 -0.034999986206303832 0 -0.029493091359923371 -0.034999615746843578 0 -0.029307588126322868 -0.035717907373359503 0 -0.027572057376183193 -0.034999986206303832 0 -0.02729581779857268 -0.036479264688554759 0 -0.025996884665276668 -0.03608849468126591 0 -0.027572057376183193 -0.034999986206303832 0 -0.025651404470290972 -0.034999985553092694 0 -0.025996884665276668 -0.03608849468126591 0 -0.028751682984349412 -0.036307489245202246 0 -0.027572057376183193 -0.034999986206303832 0 -0.02729581779857268 -0.036479264688554759 0 -0.028751682984349412 -0.036307489245202246 0 -0.02729581779857268 -0.036479264688554759 0 -0.028027941563466583 -0.037612150341838735 0 -0.029307588126322868 -0.035717907373359503 0 -0.031184128479784672 -0.035263449919755961 0 -0.02729581779857268 -0.036479264688554759 0 -0.026372726628133732 -0.037266995427024795 0 -0.028027941563466583 -0.037612150341838735 0 -0.02729581779857268 -0.036479264688554759 0 -0.026372726628133732 -0.037266995427024795 0 -0.025996884665276668 -0.03608849468126591 0 -0.025710462690835639 -0.03713832268153857 0 -0.031184128479784672 -0.035263449919755961 0 -0.026594714291317045 -0.036827615718336343 0 -0.026563035469912614 -0.036869301874501458 0 -0.026610262944715156 -0.036852631760446286 0 -0.026594714291317045 -0.036827615718336343 0 -0.026563035469912614 -0.036869301874501458 0 -0.026471946952846208 -0.036927890975758187 0 -0.026563035469912614 -0.036869301874501458 0 -0.026610262944715156 -0.036852631760446286 0 -0.026517159604053327 -0.036866376718011913 0 -0.037951712300588629 -0.032798518760140276 0 -0.038114155614339916 -0.03205714213335694 0 -0.037639446185234217 -0.03231458510680045 0 -0.031184128479784672 -0.035263449919755961 0 -0.032462688619017625 -0.034291047599460105 0 -0.038114155614339916 -0.03205714213335694 0 -0.037639446185234217 -0.03231458510680045 0 -0.037814723644022052 -0.03182537689189107 0 -0.026517159604053327 -0.036866376718011913 0 -0.026471946952846208 -0.036927890975758187 0 -0.026456733503453751 -0.03687109186849883 0 -0.026563035469912614 -0.036869301874501458 0 -0.026517159604053327 -0.036866376718011913 0 -0.026471946952846208 -0.036927890975758187 0 -0.037951712300588629 -0.032798518760140276 0 -0.036858260563015263 -0.03296629841056594 0 -0.037639446185234217 -0.03231458510680045 0 -0.031184128479784672 -0.035263449919755961 0 -0.034974153535596776 -0.033684539767803293 0 -0.030419192665118402 -0.034596225324865247 0 -0.030310951689543342 -0.035073489473264392 0 -0.031883481152766499 -0.034878565259569408 0 -0.037639446185234217 -0.03231458510680045 0 -0.0370624067915378 -0.031921960793821723 0 -0.037574945974358093 -0.031857446556581556 0 -0.037639446185234217 -0.03231458510680045 0 -0.037574945974358093 -0.031857446556581556 0 -0.037814723644022052 -0.03182537689189107 0 -0.036858260563015263 -0.03296629841056594 0 -0.037639446185234217 -0.03231458510680045 0 -0.0370624067915378 -0.031921960793821723 0 -0.0370624067915378 -0.031921960793821723 0 -0.037027344879654485 -0.031195489294269411 0 -0.036172384668483673 -0.030995722504489752 0 -0.037027344879654485 -0.031195489294269411 0 -0.036886371933053878 -0.030454900417649602 0 -0.036172384668483673 -0.030995722504489752 0 -0.037027344879654485 -0.031195489294269411 0 -0.037346429803295965 -0.031232621358809887 0 -0.03732593652096456 -0.030861079387914957 0 -0.037027344879654485 -0.031195489294269411 0 -0.037407498424719313 -0.031545639772890655 0 -0.037346429803295965 -0.031232621358809887 0 -0.0370624067915378 -0.031921960793821723 0 -0.037027344879654485 -0.031195489294269411 0 -0.037407498424719313 -0.031545639772890655 0 -0.0370624067915378 -0.031921960793821723 0 -0.037574945974358093 -0.031857446556581556 0 -0.037407498424719313 -0.031545639772890655 0 -0.037574945974358093 -0.031857446556581556 0 -0.037407498424719313 -0.031545639772890655 0 -0.037707615675604919 -0.031557526931036181 0 -0.037574945974358093 -0.031857446556581556 0 -0.037707615675604919 -0.031557526931036181 0 -0.037814723644022052 -0.03182537689189107 0 -0.037707615675604919 -0.031557526931036181 0 -0.037814723644022052 -0.03182537689189107 0 -0.037795464825854413 -0.031627558406925896 0 -0.037621863833937973 -0.031434641967990958 0 -0.037530342428035351 -0.031036133196189409 0 -0.037707615675604919 -0.031557526931036181 0 -0.037623436754105004 -0.031319731017572745 0 -0.037905724561227844 -0.03086198715577701 0 -0.037707615675604919 -0.031557526931036181 0 -0.03774616941395012 -0.031583365834683824 0 -0.037795464825854413 -0.031627558406925896 0 -0.037602783809790638 -0.031090261630613587 0 -0.037530342428035351 -0.031036133196189409 0 -0.037623436754105004 -0.031319731017572745 0 -0.03732593652096456 -0.030861079387914957 0 -0.037929265490935296 -0.030810680267573855 0 -0.037407498424719313 -0.031545639772890655 0 -0.037346429803295965 -0.031232621358809887 0 -0.037623436754105004 -0.031319731017572745 0 -0.037407498424719313 -0.031545639772890655 0 -0.037707615675604919 -0.031557526931036181 0 -0.037623436754105004 -0.031319731017572745 0 -0.037346429803295965 -0.031232621358809887 0 -0.037623436754105004 -0.031319731017572745 0 -0.03732593652096456 -0.030861079387914957 0 -0.03732593652096456 -0.030861079387914957 0 -0.037929265490935296 -0.030810680267573855 0 -0.037437310194202662 -0.030167049315587738 0 -0.037530342428035351 -0.031036133196189409 0 -0.03756292495105313 -0.029781479938205901 0 -0.037929265490935296 -0.030810680267573855 0 -0.037437310194202662 -0.030167049315587738 0 -0.038121061322651154 -0.02942916978398432 0 -0.037437310194202662 -0.030167049315587738 0 -0.036886371933053878 -0.030454900417649602 0 -0.036964632693607412 -0.029335719998337478 0 -0.036886371933053878 -0.030454900417649602 0 -0.036964632693607412 -0.029335719998337478 0 -0.036196125015611959 -0.030166575326806628 0 -0.03732593652096456 -0.030861079387914957 0 -0.037437310194202662 -0.030167049315587738 0 -0.036886371933053878 -0.030454900417649602 0 -0.037027344879654485 -0.031195489294269411 0 -0.03732593652096456 -0.030861079387914957 0 -0.036886371933053878 -0.030454900417649602 0 -0.038114155614339916 -0.03205714213335694 0 -0.038001248912815734 -0.031656775445452368 0 -0.037919924311183746 -0.031686903691719989 0 -0.026517159604053327 -0.036866376718011913 0 -0.026446658895469204 -0.036719946363058281 0 -0.026456733503453751 -0.03687109186849883 0 -0.032462688619017625 -0.034291047599460105 0 -0.032129760094202417 -0.034463935389024716 0 -0.038001248912815734 -0.031656775445452368 0 -0.037919924311183746 -0.031686903691719989 0 -0.037914271041634647 -0.031591392806624499 0 -0.038114155614339916 -0.03205714213335694 0 -0.037919924311183746 -0.031686903691719989 0 -0.037814723644022052 -0.03182537689189107 0 -0.037919924311183746 -0.031686903691719989 0 -0.037814723644022052 -0.03182537689189107 0 -0.037795464825854413 -0.031627558406925896 0 -0.03774616941395012 -0.031583365834683824 0 -0.037842842585235681 -0.031549316054802996 0 -0.037837935458289659 -0.031463197305938405 0 -0.037530342428035351 -0.031036133196189409 0 -0.037825351674683622 -0.030963194950574667 0 -0.037919924311183746 -0.031686903691719989 0 -0.037795464825854413 -0.031627558406925896 0 -0.037842842585235681 -0.031549316054802996 0 -0.03774616941395012 -0.031583365834683824 0 -0.037795464825854413 -0.031627558406925896 0 -0.037842842585235681 -0.031549316054802996 0 -0.037919924311183746 -0.031686903691719989 0 -0.037842842585235681 -0.031549316054802996 0 -0.037914271041634647 -0.031591392806624499 0 -0.037842842585235681 -0.031549316054802996 0 -0.037914271041634647 -0.031591392806624499 0 -0.037887678066005175 -0.031483489243044276 0 -0.038001248912815734 -0.031656775445452368 0 -0.037887678066005175 -0.031483489243044276 0 -0.03795126724691264 -0.031499751084830281 0 -0.038001248912815734 -0.031656775445452368 0 -0.037914271041634647 -0.031591392806624499 0 -0.037887678066005175 -0.031483489243044276 0 -0.037887678066005175 -0.031483489243044276 0 -0.037847643946048053 -0.031465337227487553 0 -0.037837935458289659 -0.031463197305938405 0 -0.037887678066005175 -0.031483489243044276 0 -0.037847643946048053 -0.031465337227487553 0 -0.037812067997225168 -0.031467029961798593 0 -0.037842842585235681 -0.031549316054802996 0 -0.037887678066005175 -0.031483489243044276 0 -0.037837935458289659 -0.031463197305938405 0 -0.037825351674683622 -0.030963194950574667 0 -0.037328185328234134 -0.02728484798950043 0 -0.037839453225666064 -0.029516290365923875 0 -0.037370949703081573 -0.027813837625091938 0 -0.038777672166149413 -0.027835493277706624 0 -0.037839453225666064 -0.029516290365923875 0 -0.037370949703081573 -0.027813837625091938 0 -0.03713418866763963 -0.029505687784085459 0 -0.038194630252011495 -0.026392945445874935 0 -0.037328185328234134 -0.02728484798950043 0 -0.037841535166386997 -0.031470276520917238 0 -0.037812067997225168 -0.031467029961798593 0 -0.037768214849375349 -0.031496514395560039 0 -0.037847643946048053 -0.031465337227487553 0 -0.037841535166386997 -0.031470276520917238 0 -0.037812067997225168 -0.031467029961798593 0 -0.037328185328234134 -0.02728484798950043 0 -0.03669844879358005 -0.027788327329802288 0 -0.037847643946048053 -0.031465337227487553 0 -0.037837935458289659 -0.031463197305938405 0 -0.037841535166386997 -0.031470276520917238 0 -0.036905956928307324 -0.031186728399720469 0 -0.037839453225666064 -0.029516290365923875 0 -0.03713418866763963 -0.029505687784085459 0 -0.037437310194202662 -0.030167049315587738 0 -0.036964632693607412 -0.029335719998337478 0 -0.038121061322651154 -0.02942916978398432 0 -0.038299958098451194 -0.028150319081265904 0 -0.036964632693607412 -0.029335719998337478 0 -0.038121061322651154 -0.02942916978398432 0 -0.038194630252011495 -0.026392945445874935 0 -0.03756292495105313 -0.029781479938205901 0 -0.038299958098451194 -0.028150319081265904 0 -0.036964632693607412 -0.029335719998337478 0 -0.036618398364479735 -0.028149969033165849 0 -0.036964632693607412 -0.029335719998337478 0 -0.036021620582643743 -0.029157507103932327 0 -0.036618398364479735 -0.028149969033165849 0 -0.036021620582643743 -0.029157507103932327 0 -0.035006451538673385 -0.028123478884082117 0 -0.036618398364479735 -0.028149969033165849 0 -0.036964632693607412 -0.029335719998337478 0 -0.036021620582643743 -0.029157507103932327 0 -0.036196125015611959 -0.030166575326806628 0 -0.036021620582643743 -0.029157507103932327 0 -0.035434609415833838 -0.029745107599546246 0 -0.036196125015611959 -0.030166575326806628 0 -0.035848385736966193 -0.029544950777378731 0 -0.03554831605462154 -0.02826315006894441 0 -0.035476492245419426 -0.029749644801529796 0 -0.037817662287817556 -0.028187188967390291 0 -0.03756245341913076 -0.027204422945926478 0 -0.03643091741910516 -0.027425162637370926 0 -0.03645491013130954 -0.029015644247325886 0 -0.035980573869674931 -0.027797257890851718 0 -0.03645491013130954 -0.029015644247325886 0 -0.036432152423662677 -0.029126161023850398 0 -0.03645491013130954 -0.029015644247325886 0 -0.036423014621056238 -0.028159619588287107 0 -0.036021620582643743 -0.029157507103932327 0 -0.035434609415833838 -0.029745107599546246 0 -0.035218466782468962 -0.028937090708453406 0 -0.036021620582643743 -0.029157507103932327 0 -0.035218466782468962 -0.028937090708453406 0 -0.035006451538673385 -0.028123478884082117 0 -0.036423014621056238 -0.028159619588287107 0 -0.036340585658161895 -0.026445820479742334 0 -0.03756245341913076 -0.027204422945926478 0 -0.036906268026284543 -0.026844047648512104 0 -0.037302470193336303 -0.026214036779467109 0 -0.036906268026284543 -0.026844047648512104 0 -0.03643091741910516 -0.027425162637370926 0 -0.036534479302169236 -0.026189747508213339 0 -0.03643091741910516 -0.027425162637370926 0 -0.035696154987521711 -0.026069176564429176 0 -0.036534479302169236 -0.026189747508213339 0 -0.036906268026284543 -0.026844047648512104 0 -0.036534479302169236 -0.026189747508213339 0 -0.037302470193336303 -0.026214036779467109 0 -0.03756245341913076 -0.027204422945926478 0 -0.036906268026284543 -0.026844047648512104 0 -0.03643091741910516 -0.027425162637370926 0 -0.034999925313660786 -0.026666539643298695 0 -0.035980573869674931 -0.027797257890851718 0 -0.034999986834935139 -0.026666231423533967 0 -0.03643091741910516 -0.027425162637370926 0 -0.035696154987521711 -0.026069176564429176 0 -0.034999862919690289 -0.02666756601584375 0 -0.03554831605462154 -0.02826315006894441 0 -0.034999112715246965 -0.028699239933456501 0 -0.03554831605462154 -0.02826315006894441 0 -0.035476492245419426 -0.029749644801529796 0 -0.034999112715246965 -0.028699239933456501 0 -0.035476492245419426 -0.029749644801529796 0 -0.034999112715246965 -0.028699239933456501 0 -0.035064876494285108 -0.030775266679242765 0 -0.034998034344868319 -0.031405169800196128 0 -0.034999112715246965 -0.028699239933456501 0 -0.035064876494285108 -0.030775266679242765 0 -0.035476492245419426 -0.029749644801529796 0 -0.035064876494285108 -0.030775266679242765 0 -0.03534525468437149 -0.030904110380049775 0 -0.034553971598975206 -0.033084929166252615 0 -0.035064876494285108 -0.030775266679242765 0 -0.03534525468437149 -0.030904110380049775 0 -0.034553971598975206 -0.033084929166252615 0 -0.03534525468437149 -0.030904110380049775 0 -0.036172384668483673 -0.030995722504489752 0 -0.03534525468437149 -0.030904110380049775 0 -0.036172384668483673 -0.030995722504489752 0 -0.035787143342278768 -0.030288196840287083 0 -0.036172384668483673 -0.030995722504489752 0 -0.036196125015611959 -0.030166575326806628 0 -0.035787143342278768 -0.030288196840287083 0 -0.036886371933053878 -0.030454900417649602 0 -0.036172384668483673 -0.030995722504489752 0 -0.036196125015611959 -0.030166575326806628 0 -0.035814977044428604 -0.029577337076930565 0 -0.036196125015611959 -0.030166575326806628 0 -0.03582736272729798 -0.029698843186285802 0 -0.036196125015611959 -0.030166575326806628 0 -0.03582736272729798 -0.029698843186285802 0 -0.035787143342278768 -0.030288196840287083 0 -0.03645491013130954 -0.029015644247325886 0 -0.036022578815218829 -0.029943997126747963 0 -0.035476492245419426 -0.029749644801529796 0 -0.03582736272729798 -0.029698843186285802 0 -0.035787143342278768 -0.030288196840287083 0 -0.035848385736966193 -0.029544950777378731 0 -0.035476492245419426 -0.029749644801529796 0 -0.03582736272729798 -0.029698843186285802 0 -0.035476492245419426 -0.029749644801529796 0 -0.03534525468437149 -0.030904110380049775 0 -0.035787143342278768 -0.030288196840287083 0 -0.017844802899463399 -0.038034480423001997 0 -0.012964392909072501 -0.036270465862644492 0 -0.017280587830715108 -0.037162020982242104 0 -0.017153854261994703 -0.038905356938175116 0 -0.016222680300416372 -0.037519233737341985 0 -0.019146176829486366 -0.038286163307858959 0 -0.017742511162774401 -0.037819579119485289 0 -0.017595858100136651 -0.039386456210112435 0 -0.019146176829486366 -0.038286163307858959 0 -0.019054880517593676 -0.039655670593055622 0 -0.017595858100136651 -0.039386456210112435 0 -0.019146176829486366 -0.038286163307858959 0 -0.020425167882451096 -0.038902742712588784 0 -0.019054880517593676 -0.039655670593055622 0 -0.019146176829486366 -0.038286163307858959 0 -0.018632800547018762 -0.037059379146751184 0 -0.019742831715686384 -0.036927442989075791 0 -0.019146176829486366 -0.038286163307858959 0 -0.018632800547018762 -0.037059379146751184 0 -0.017742511162774401 -0.037819579119485289 0 -0.017844802899463399 -0.038034480423001997 0 -0.017708162014251638 -0.035975431056685221 0 -0.018632800547018762 -0.037059379146751184 0 -0.017742511162774401 -0.037819579119485289 0 -0.017792637308788335 -0.036128742836284408 0 -0.017280587830715108 -0.037162020982242104 0 -0.017792637308788335 -0.036128742836284408 0 -0.016111365802917211 -0.036288312547004549 0 -0.017792637308788335 -0.036128742836284408 0 -0.017968362139842042 -0.034999571883565769 0 -0.019097867870507077 -0.035926309201750897 0 -0.017792637308788335 -0.036128742836284408 0 -0.017968362139842042 -0.034999571883565769 0 -0.016762938523635536 -0.035578894546820686 0 -0.017968362139842042 -0.034999571883565769 0 -0.019097867870507077 -0.035926309201750897 0 -0.019889440995139208 -0.034999862054078831 0 -0.018632800547018762 -0.037059379146751184 0 -0.017792637308788335 -0.036128742836284408 0 -0.019097867870507077 -0.035926309201750897 0 -0.018632800547018762 -0.037059379146751184 0 -0.019097867870507077 -0.035926309201750897 0 -0.019742831715686384 -0.036927442989075791 0 -0.019742831715686384 -0.036927442989075791 0 -0.02041107906136436 -0.035835082871979812 0 -0.020874716403590007 -0.036744511916751633 0 -0.019097867870507077 -0.035926309201750897 0 -0.019742831715686384 -0.036927442989075791 0 -0.02041107906136436 -0.035835082871979812 0 -0.019889440995139208 -0.034999862054078831 0 -0.02041107906136436 -0.035835082871979812 0 -0.021810046507943194 -0.034999883539690621 0 -0.019097867870507077 -0.035926309201750897 0 -0.019889440995139208 -0.034999862054078831 0 -0.02041107906136436 -0.035835082871979812 0 -0.02041107906136436 -0.035835082871979812 0 -0.021810046507943194 -0.034999883539690621 0 -0.021417545542947333 -0.036012031723093717 0 -0.021417545542947333 -0.036012031723093717 0 -0.020874716403590007 -0.036744511916751633 0 -0.022121670150122383 -0.036653740241433599 0 -0.02041107906136436 -0.035835082871979812 0 -0.021417545542947333 -0.036012031723093717 0 -0.020874716403590007 -0.036744511916751633 0 -0.020874716403590007 -0.036744511916751633 0 -0.021495153098762418 -0.03747201742505081 0 -0.022121670150122383 -0.036653740241433599 0 -0.021495153098762418 -0.03747201742505081 0 -0.021256259885837452 -0.038462335962660195 0 -0.022062272507220152 -0.038088883507325762 0 -0.021495153098762418 -0.03747201742505081 0 -0.020459245883991759 -0.037788419739587353 0 -0.021256259885837452 -0.038462335962660195 0 -0.020874716403590007 -0.036744511916751633 0 -0.021495153098762418 -0.03747201742505081 0 -0.020459245883991759 -0.037788419739587353 0 -0.019146176829486366 -0.038286163307858959 0 -0.019742831715686384 -0.036927442989075791 0 -0.020459245883991759 -0.037788419739587353 0 -0.019742831715686384 -0.036927442989075791