<?xml version="1.0"?>
<VTKFile type="UnstructuredGrid" version="0.1" byte_order="LittleEndian">
<UnstructuredGrid>
<Piece NumberOfPoints="31898" NumberOfCells="11152">
<Points>
<DataArray type="Float64" NumberOfComponents="3" format="ascii">
-0.5 -0.5 0 -0.47620991077874902 -0.44978878706170539 0 -0.49999999999999473 -0.42132396840504388 0 -0.5 -0.5 0 -0.47160970827802529 -0.4793630013852106 0 -0.47620991077874902 -0.44978878706170539 0 -0.5 -0.5 0 -0.47160970827802529 -0.4793630013852106 0 -0.44860394795025399 -0.5 0 -0.47160970827802529 -0.4793630013852106 0 -0.44860394795025399 -0.5 0 -0.4490820238307246 -0.45820516232899983 0 -0.44860394795025399 -0.5 0 -0.4490820238307246 -0.45820516232899983 0 -0.42881687682924802 -0.47781464288736519 0 -0.4490820238307246 -0.45820516232899983 0 -0.45555437223955858 -0.42914059360647611 0 -0.4490820238307246 -0.45820516232899983 0 -0.45555437223955858 -0.42914059360647611 0 -0.43867285131603428 -0.4271457417558665 0 -0.4490820238307246 -0.45820516232899983 0 -0.43867285131603428 -0.4271457417558665 0 -0.4263356171060747 -0.44269880333887462 0 -0.47160970827802529 -0.4793630013852106 0 -0.4490820238307246 -0.45820516232899983 0 -0.47620991077874902 -0.44978878706170539 0 -0.4490820238307246 -0.45820516232899983 0 -0.47620991077874902 -0.44978878706170539 0 -0.45555437223955858 -0.42914059360647611 0 -0.47620991077874902 -0.44978878706170539 0 -0.48101336032419229 -0.41069999664450008 0 -0.45555437223955858 -0.42914059360647611 0 -0.47620991077874902 -0.44978878706170539 0 -0.49999999999999473 -0.42132396840504388 0 -0.48101336032419229 -0.41069999664450008 0 -0.49999999999999473 -0.42132396840504388 0 -0.48101336032419229 -0.41069999664450008 0 -0.5 -0.393886241813306 0 -0.49999999999999473 -0.42132396840504388 0 -0.48101336032419229 -0.41069999664450008 0 -0.5 -0.393886241813306 0 -0.47854472220918332 -0.38978458738689759 0 -0.48422759779560409 -0.37130120630367158 0 -0.5 -0.393886241813306 0 -0.5 -0.36644851522156802 0 -0.48422759779560409 -0.37130120630367158 0 -0.48101336032419229 -0.41069999664450008 0 -0.5 -0.393886241813306 0 -0.47854472220918332 -0.38978458738689759 0 -0.48101336032419229 -0.41069999664450008 0 -0.47854472220918332 -0.38978458738689759 0 -0.46202672064839212 -0.40007602488395211 0 -0.48101336032419229 -0.41069999664450008 0 -0.46202672064839212 -0.40007602488395211 0 -0.47854472220918332 -0.38978458738689759 0 -0.46725442735267431 -0.37660061361585562 0 -0.46202672064839212 -0.40007602488395211 0 -0.47854472220918332 -0.38978458738689759 0 -0.46725442735267431 -0.37660061361585562 0 -0.48422759779560409 -0.37130120630367158 0 -0.46725442735267431 -0.37660061361585562 0 -0.46202672064839212 -0.40007602488395211 0 -0.46725442735267431 -0.37660061361585562 0 -0.45645674801697989 -0.38644133236760531 0 -0.46202672064839212 -0.40007602488395211 0 -0.46725442735267431 -0.37660061361585562 0 -0.45645674801697989 -0.38644133236760531 0 -0.4540003998136638 -0.37455519391687309 0 -0.45645674801697989 -0.38644133236760531 0 -0.46202672064839212 -0.40007602488395211 0 -0.44257020456291563 -0.38918913383950271 0 -0.46202672064839212 -0.40007602488395211 0 -0.44257020456291563 -0.38918913383950271 0 -0.44727608925983742 -0.41095911152778891 0 -0.46202672064839212 -0.40007602488395211 0 -0.44257020456291563 -0.38918913383950271 0 -0.44257020456291563 -0.38918913383950271 0 -0.44727608925983742 -0.41095911152778891 0 -0.43479358559901082 -0.4041454901736512 0 -0.44257020456291563 -0.38918913383950271 0 -0.4540003998136638 -0.37455519391687309 0 -0.44172858264042247 -0.37082207246888088 0 -0.45645674801697989 -0.38644133236760531 0 -0.44257020456291563 -0.38918913383950271 0 -0.4540003998136638 -0.37455519391687309 0 -0.46202672064839212 -0.40007602488395211 0 -0.45555437223955858 -0.42914059360647611 0 -0.44727608925983742 -0.41095911152778891 0 -0.46202672064839212 -0.40007602488395211 0 -0.45555437223955858 -0.42914059360647611 0 -0.48101336032419229 -0.41069999664450008 0 -0.46202672064839212 -0.40007602488395211 0 -0.45555437223955858 -0.42914059360647611 0 -0.44727608925983742 -0.41095911152778891 0 -0.43867285131603428 -0.4271457417558665 0 -0.43676601469929588 -0.41441201227470881 0 -0.44727608925983742 -0.41095911152778891 0 -0.43676601469929588 -0.41441201227470881 0 -0.43479358559901082 -0.4041454901736512 0 -0.45555437223955858 -0.42914059360647611 0 -0.44727608925983742 -0.41095911152778891 0 -0.43867285131603428 -0.4271457417558665 0 -0.43867285131603428 -0.4271457417558665 0 -0.42681803064840879 -0.42717069814352421 0 -0.4263356171060747 -0.44269880333887462 0 -0.42681803064840879 -0.42717069814352421 0 -0.41531815884496182 -0.42985383783075998 0 -0.4263356171060747 -0.44269880333887462 0 -0.42681803064840879 -0.42717069814352421 0 -0.42624289495594048 -0.42089725947505818 0 -0.42083332353326591 -0.42146747131641099 0 -0.42681803064840879 -0.42717069814352421 0 -0.43096994786351572 -0.41951492446283251 0 -0.42624289495594048 -0.42089725947505818 0 -0.43867285131603428 -0.4271457417558665 0 -0.42681803064840879 -0.42717069814352421 0 -0.43096994786351572 -0.41951492446283251 0 -0.43867285131603428 -0.4271457417558665 0 -0.43676601469929588 -0.41441201227470881 0 -0.43096994786351572 -0.41951492446283251 0 -0.43676601469929588 -0.41441201227470881 0 -0.43096994786351572 -0.41951492446283251 0 -0.42907264086257813 -0.41311715872526122 0 -0.43676601469929588 -0.41441201227470881 0 -0.42907264086257813 -0.41311715872526122 0 -0.43479358559901082 -0.4041454901736512 0 -0.42907264086257813 -0.41311715872526122 0 -0.43479358559901082 -0.4041454901736512 0 -0.42460885511582858 -0.40417321677700252 0 -0.42907264086257813 -0.41311715872526122 0 -0.41997834854398469 -0.41180534796019508 0 -0.42907264086257813 -0.41311715872526122 0 -0.42635027777857132 -0.41543594397746519 0 -0.41997834854398469 -0.41180534796019508 0 -0.42907264086257813 -0.41311715872526122 0 -0.41997834854398469 -0.41180534796019508 0 -0.42460885511582858 -0.40417321677700252 0 -0.42635027777857132 -0.41543594397746519 0 -0.41997834854398469 -0.41180534796019508 0 -0.42635027777857132 -0.41543594397746519 0 -0.42083332353326591 -0.42146747131641099 0 -0.41997834854398469 -0.41180534796019508 0 -0.43096994786351572 -0.41951492446283251 0 -0.42624289495594048 -0.42089725947505818 0 -0.42635027777857132 -0.41543594397746519 0 -0.43096994786351572 -0.41951492446283251 0 -0.42907264086257813 -0.41311715872526122 0 -0.42635027777857132 -0.41543594397746519 0 -0.42624289495594048 -0.42089725947505818 0 -0.42635027777857132 -0.41543594397746519 0 -0.42083332353326591 -0.42146747131641099 0 -0.42083332353326591 -0.42146747131641099 0 -0.41997834854398469 -0.41180534796019508 0 -0.40992282953163789 -0.42011435591993562 0 -0.41997834854398469 -0.41180534796019508 0 -0.39756877647335259 -0.40857286797681719 0 -0.41997834854398469 -0.41180534796019508 0 -0.40992282953163789 -0.42011435591993562 0 -0.39756877647335259 -0.40857286797681719 0 -0.40992282953163789 -0.42011435591993562 0 -0.41531815884496182 -0.42985383783075998 0 -0.39591554026262499 -0.42887225451549271 0 -0.41531815884496182 -0.42985383783075998 0 -0.39591554026262499 -0.42887225451549271 0 -0.41160927495564159 -0.44339431233754628 0 -0.42083332353326591 -0.42146747131641099 0 -0.40992282953163789 -0.42011435591993562 0 -0.41531815884496182 -0.42985383783075998 0 -0.42681803064840879 -0.42717069814352421 0 -0.42083332353326591 -0.42146747131641099 0 -0.41531815884496182 -0.42985383783075998 0 -0.44257020456291563 -0.38918913383950271 0 -0.42311368847744002 -0.37830224279505142 0 -0.42594061475171041 -0.39368797999533162 0 -0.44257020456291563 -0.38918913383950271 0 -0.42311368847744002 -0.37830224279505142 0 -0.44172858264042247 -0.37082207246888088 0 -0.44257020456291563 -0.38918913383950271 0 -0.42311368847744002 -0.37830224279505142 0 -0.42311368847744002 -0.37830224279505142 0 -0.42594061475171041 -0.39368797999533162 0 -0.416587075656149 -0.38785930376960043 0 -0.44257020456291563 -0.38918913383950271 0 -0.42594061475171041 -0.39368797999533162 0 -0.43479358559901082 -0.4041454901736512 0 -0.42594061475171041 -0.39368797999533162 0 -0.43479358559901082 -0.4041454901736512 0 -0.42460885511582858 -0.40417321677700252 0 -0.41997834854398469 -0.41180534796019508 0 -0.41325908582185972 -0.39811010703057192 0 -0.39770572831670092 -0.39911486077581648 0 -0.41997834854398469 -0.41180534796019508 0 -0.39770572831670092 -0.39911486077581648 0 -0.42594061475171041 -0.39368797999533162 0 -0.42460885511582858 -0.40417321677700252 0 -0.41325908582185972 -0.39811010703057192 0 -0.41997834854398469 -0.41180534796019508 0 -0.42460885511582858 -0.40417321677700252 0 -0.41325908582185972 -0.39811010703057192 0 -0.42594061475171041 -0.39368797999533162 0 -0.41325908582185972 -0.39811010703057192 0 -0.416587075656149 -0.38785930376960043 0 -0.41325908582185972 -0.39811010703057192 0 -0.416587075656149 -0.38785930376960043 0 -0.40403491357358612 -0.38133688525744702 0 -0.42311368847744002 -0.37830224279505142 0 -0.40403491357358612 -0.38133688525744702 0 -0.40365717239196519 -0.36741535175059892 0 -0.42311368847744002 -0.37830224279505142 0 -0.416587075656149 -0.38785930376960043 0 -0.40403491357358612 -0.38133688525744702 0 -0.40403491357358612 -0.38133688525744702 0 -0.39190790742475001 -0.38540387676521748 0 -0.39770572831670092 -0.39911486077581648 0 -0.40403491357358612 -0.38133688525744702 0 -0.39190790742475001 -0.38540387676521748 0 -0.3904578797192948 -0.37473938743617019 0 -0.41325908582185972 -0.39811010703057192 0 -0.40403491357358612 -0.38133688525744702 0 -0.39770572831670092 -0.39911486077581648 0 -0.39770572831670092 -0.39911486077581648 0 -0.37543310808941849 -0.38642437359143528 0 -0.39770572831670092 -0.39911486077581648 0 -0.37515920440272033 -0.40534038799344108 0 -0.37543310808941849 -0.38642437359143528 0 -0.39770572831670092 -0.39911486077581648 0 -0.37515920440272033 -0.40534038799344108 0 -0.39756877647335259 -0.40857286797681719
[...]
<PointData Scalars="" Vectors="displacement," Tensors="">
<DataArray type="Float64" Name="displacement" NumberOfComponents="3" format="ascii">
-0.034997084558461324 -2.5006775887895485e-07 0 -0.034088002776419241 -0.00015973265876246441 0 -0.034997576230612559 -7.0873687774081759e-07 0 -0.034997084558461324 -2.5006775887895485e-07 0 -0.033439413460653274 -9.7050164022761764e-05 0 -0.034088002776419241 -0.00015973265876246441 0 -0.034997084558461324 -2.5006775887895485e-07 0 -0.033439413460653274 -9.7050164022761764e-05 0 -0.031404173146084714 -1.829461353823896e-07 0 -0.033439413460653274 -9.7050164022761764e-05 0 -0.031404173146084714 -1.829461353823896e-07 0 -0.032758503072344486 0.00015091688212512895 0 -0.031404173146084714 -1.829461353823896e-07 0 -0.032758503072344486 0.00015091688212512895 0 -0.031157537404006983 -6.0202131465775682e-05 0 -0.032842925551693984 0.00018728281205322814 0 -0.033077171101903884 0.0004357362647975863 0 -0.032758503072344486 0.00015091688212512895 0 -0.031915375338770466 0.00053340500828249636 0 -0.03183747676644743 0.00018115277473774525 0 -0.032758503072344486 0.00015091688212512895 0 -0.03183747676644743 0.00018115277473774525 0 -0.031982364154236553 1.145062180484316e-05 0 -0.033439413460653274 -9.7050164022761764e-05 0 -0.032758503072344486 0.00015091688212512895 0 -0.034088002776419241 -0.00015973265876246441 0 -0.032758503072344486 0.00015091688212512895 0 -0.034088002776419241 -0.00015973265876246441 0 -0.034423224994283824 0.00031426751799631958 0 -0.034088002776419241 -0.00015973265876246441 0 -0.03488169899990165 -9.2702639216459625e-06 0 -0.034423224994283824 0.00031426751799631958 0 -0.034088002776419241 -0.00015973265876246441 0 -0.034997576230612559 -7.0873687774081759e-07 0 -0.03488169899990165 -9.2702639216459625e-06 0 -0.034999997636684273 3.2059683606315707e-10 0 -0.034994106675435364 6.5476810850030446e-07 0 -0.034999988909803166 7.0689645539937173e-10 0 -0.034999865210161137 -1.3797417862233337e-07 0 -0.035081502454115669 5.8603422657697193e-05 0 -0.034999988909803166 7.0689645539937173e-10 0 -0.034991709690240014 3.133699047235631e-07 0 -0.034995451452407338 -1.0493535253554056e-06 0 -0.034999988909803166 7.0689645539937173e-10 0 -0.034999990385412363 -2.7217781697862234e-09 0 -0.034995451452407338 -1.0493535253554056e-06 0 -0.034994106675435364 6.5476810850030446e-07 0 -0.034999988909803166 7.0689645539937173e-10 0 -0.034991709690240014 3.133699047235631e-07 0 -0.034994106675435364 6.5476810850030446e-07 0 -0.034991709690240014 3.133699047235631e-07 0 -0.034983097883991225 2.3040842624299336e-06 0 -0.035081502454115669 5.8603422657697193e-05 0 -0.033533663040543137 0.00022840239132932116 0 -0.034991709690240014 3.133699047235631e-07 0 -0.034989163947856242 1.9651442245504871e-06 0 -0.034983097883991225 2.3040842624299336e-06 0 -0.034991709690240014 3.133699047235631e-07 0 -0.034989163947856242 1.9651442245504871e-06 0 -0.034995451452407338 -1.0493535253554056e-06 0 -0.034218517557021613 5.1943678699967369e-05 0 -0.033533663040543137 0.00022840239132932116 0 -0.03323925848112956 0.00015572556357959299 0 -0.033144826793684114 0.00029362557554462492 0 -0.033000781132502786 0.00023521053134632921 0 -0.03323925848112956 0.00015572556357959299 0 -0.033144826793684114 0.00029362557554462492 0 -0.033287656657941984 0.00033317458654455543 0 -0.033144826793684114 0.00029362557554462492 0 -0.033000781132502786 0.00023521053134632921 0 -0.033122654019234782 0.00044516629408286937 0 -0.03140689159299092 0.00064743486792407778 0 -0.031193695270420561 0.00032605053829409721 0 -0.031589018196016096 0.00038424188675462471 0 -0.033533663040543137 0.00022840239132932116 0 -0.03201876931252684 0.00034202129736716033 0 -0.031193695270420561 0.00032605053829409721 0 -0.031589018196016096 0.00038424188675462471 0 -0.031466235679804888 0.0001843506100926765 0 -0.033122654019234782 0.00044516629408286937 0 -0.033287656657941984 0.00033317458654455543 0 -0.033325123063739664 0.0004577378002327801 0 -0.033144826793684114 0.00029362557554462492 0 -0.033122654019234782 0.00044516629408286937 0 -0.033287656657941984 0.00033317458654455543 0 -0.03140689159299092 0.00064743486792407778 0 -0.031915375338770466 0.00053340500828249636 0 -0.031589018196016096 0.00038424188675462471 0 -0.033533663040543137 0.00022840239132932116 0 -0.033077171101903884 0.0004357362647975863 0 -0.03488169899990165 -9.2702639216459625e-06 0 -0.034996289051796012 0.00027361550745033376 0 -0.034423224994283824 0.00031426751799631958 0 -0.031589018196016096 0.00038424188675462471 0 -0.03183747676644743 0.00018115277473774525 0 -0.031657322433601191 0.00020228707900100577 0 -0.031589018196016096 0.00038424188675462471 0 -0.031657322433601191 0.00020228707900100577 0 -0.031466235679804888 0.0001843506100926765 0 -0.031915375338770466 0.00053340500828249636 0 -0.031589018196016096 0.00038424188675462471 0 -0.03183747676644743 0.00018115277473774525 0 -0.03183747676644743 0.00018115277473774525 0 -0.031824185243361745 7.216040833228949e-05 0 -0.031982364154236553 1.145062180484316e-05 0 -0.031824185243361745 7.216040833228949e-05 0 -0.031825687112149365 6.0418989248669875e-05 0 -0.031982364154236553 1.145062180484316e-05 0 -0.031824185243361745 7.216040833228949e-05 0 -0.031762859953100193 7.4295773403811215e-05 0 -0.031771638348762204 5.9972095046649575e-05 0 -0.031824185243361745 7.216040833228949e-05 0 -0.031744109175664732 0.00011499255962428018 0 -0.031762859953100193 7.4295773403811215e-05 0 -0.03183747676644743 0.00018115277473774525 0 -0.031824185243361745 7.216040833228949e-05 0 -0.031744109175664732 0.00011499255962428018 0 -0.03183747676644743 0.00018115277473774525 0 -0.031657322433601191 0.00020228707900100577 0 -0.031744109175664732 0.00011499255962428018 0 -0.031657322433601191 0.00020228707900100577 0 -0.031744109175664732 0.00011499255962428018 0 -0.031652936181510209 9.3211246158650239e-05 0 -0.031657322433601191 0.00020228707900100577 0 -0.031652936181510209 9.3211246158650239e-05 0 -0.031466235679804888 0.0001843506100926765 0 -0.031652936181510209 9.3211246158650239e-05 0 -0.031466235679804888 0.0001843506100926765 0 -0.031460242461013602 2.096258555358717e-06 0 -0.031282440044100121 9.3098232232151107e-05 0 -0.030875859563767732 0.00029803611483707779 0 -0.031652936181510209 9.3211246158650239e-05 0 -0.031710256612828391 6.0742964707647454e-05 0 -0.03165294082086488 -3.8644039414543547e-05 0 -0.031652936181510209 9.3211246158650239e-05 0 -0.031612549485188927 -8.5253320034379807e-05 0 -0.031460242461013602 2.096258555358717e-06 0 -0.031252703100779995 0.00028211411063564895 0 -0.030875859563767732 0.00029803611483707779 0 -0.031710256612828391 6.0742964707647454e-05 0 -0.031771638348762204 5.9972095046649575e-05 0 -0.03174279042776941 6.1657158286502188e-05 0 -0.031744109175664732 0.00011499255962428018 0 -0.031762859953100193 7.4295773403811215e-05 0 -0.031710256612828391 6.0742964707647454e-05 0 -0.031744109175664732 0.00011499255962428018 0 -0.031652936181510209 9.3211246158650239e-05 0 -0.031710256612828391 6.0742964707647454e-05 0 -0.031762859953100193 7.4295773403811215e-05 0 -0.031710256612828391 6.0742964707647454e-05 0 -0.031771638348762204 5.9972095046649575e-05 0 -0.031771638348762204 5.9972095046649575e-05 0 -0.03174279042776941 6.1657158286502188e-05 0 -0.031767835675887438 6.0321921872020182e-05 0 -0.030875859563767732 0.00029803611483707779 0 -0.030793084061334665 0.00020340317491177956 0 -0.03174279042776941 6.1657158286502188e-05 0 -0.031767835675887438 6.0321921872020182e-05 0 -0.031741016039866968 6.9939880230653742e-05 0 -0.031767835675887438 6.0321921872020182e-05 0 -0.031825687112149365 6.0418989248669875e-05 0 -0.031761759286486932 7.6913920174565003e-05 0 -0.031825687112149365 6.0418989248669875e-05 0 -0.031761759286486932 7.6913920174565003e-05 0 -0.031852435994368891 0.00010405305554833771 0 -0.031771638348762204 5.9972095046649575e-05 0 -0.031767835675887438 6.0321921872020182e-05 0 -0.031825687112149365 6.0418989248669875e-05 0 -0.031824185243361745 7.216040833228949e-05 0 -0.031771638348762204 5.9972095046649575e-05 0 -0.031825687112149365 6.0418989248669875e-05 0 -0.031193695270420561 0.00032605053829409721 0 -0.030936469197218385 -2.2897018638764175e-05 0 -0.031251039347617963 2.7755021324124071e-05 0 -0.033122654019234782 0.00044516629408286937 0 -0.03324343665909088 0.00062394657797677289 0 -0.033325123063739664 0.0004577378002327801 0 -0.03201876931252684 0.00034202129736716033 0 -0.032152540196404615 0.00031899354838960808 0 -0.030936469197218385 -2.2897018638764175e-05 0 -0.031251039347617963 2.7755021324124071e-05 0 -0.031114875520007697 -0.00014587501003084498 0 -0.031193695270420561 0.00032605053829409721 0 -0.031251039347617963 2.7755021324124071e-05 0 -0.031466235679804888 0.0001843506100926765 0 -0.031251039347617963 2.7755021324124071e-05 0 -0.031466235679804888 0.0001843506100926765 0 -0.031460242461013602 2.096258555358717e-06 0 -0.031612549485188927 -8.5253320034379807e-05 0 -0.031327570329267605 -0.0002144932685277811 0 -0.031344313444474713 -0.00053507199369281881 0 -0.030875859563767732 0.00029803611483707779 0 -0.03046259445692702 -0.00018196863538452379 0 -0.031251039347617963 2.7755021324124071e-05 0 -0.031460242461013602 2.096258555358717e-06 0 -0.031327570329267605 -0.0002144932685277811 0 -0.031612549485188927 -8.5253320034379807e-05 0 -0.031460242461013602 2.096258555358717e-06 0 -0.031327570329267605 -0.0002144932685277811 0 -0.031251039347617963 2.7755021324124071e-05 0 -0.031327570329267605 -0.0002144932685277811 0 -0.031114875520007697 -0.00014587501003084498 0 -0.031327570329267605 -0.0002144932685277811 0 -0.031114875520007697 -0.00014587501003084498 0 -0.030947942821758903 -0.00037830052403253924 0 -0.030936469197218385 -2.2897018638764175e-05 0 -0.030947942821758903 -0.00037830052403253924 0 -0.030711405846945972 -0.00037872353885896686 0 -0.030936469197218385 -2.2897018638764175e-05 0 -0.031114875520007697 -0.00014587501003084498 0 -0.030947942821758903 -0.00037830052403253924 0 -0.030947942821758903 -0.00037830052403253924 0 -0.031011204762014691 -0.00068325675564842266 0 -0.031344313444474713 -0.00053507199369281881 0 -0.030947942821758903 -0.00037830052403253924 0 -0.031011204762014691 -0.00068325675564842266 0 -0.030728195349733343 -0.00072199757432094588 0 -0.031327570329267605 -0.0002144932685277811 0 -0.030947942821758903 -0.00037830052403253924 0 -0.031344313444474713 -0.00053507199369281881 0 -0.03046259445692702 -0.00018196863538452379 0 -0.027003403124516483 6.5813914819934176e-05 0 -0.02899048278456871 0.00024277370599847919 0 -0.029184905211681909 -0.00054759867346268183 0 -0.028510740234867857 -0.00053725028510538176 0 -0.02899048278456871 0.00024277370599847919 0 -0.029184905211681909 -0.00054759867346268183 0 -0.029325564823507705 0.00023669231012544672 0 -0.027010809423945695 1.5348693016187306e-05 0 -0.027003403124516483 6.5813914819934176e-05 0 -0.031016071036792405 -0.00110791318672521 0 -0.030728195349733343 -0.00072199757432094588 0 -0.030553639899278489 -0.0011184678740349841 0 -0.031011204762014691 -0.00068325675564842266 0 -0.031016071036792405 -0.00110791318672521 0 -0.030728195349733343 -0.00072199757432094588 0 -0.027003403124516483 6.5813914819934176e-05 0 -0.028058999655192186 -0.00045691426695970396 0 -0.031011204762014691 -0.00068325675564842266 0 -0.031344313444474713 -0.00053507199369281881 0 -0.031016071036792405 -0.00110791318672521 0 -0.029474202843290668 0.0010021016107990769 0 -0.02899048278456871 0.00024277370599847919 0 -0.029325564823507705 0.00023669231012544672 0 -0.031767835675887438 6.0321921872020182e-05 0 -0.031761759286486932 7.6913920174565003e-05 0 -0.031741016039866968 6.9939880230653742e-05 0 -0.031700931178840458 7.4262745238957555e-05 0 -0.031761759286486932 7.6913920174565003e-05 0 -0.031741016039866968 6.9939880230653742e-05 0 -0.027010809423945695 1.5348693016187306e-05 0 -0.030793084061334665 0.00020340317491177956 0 -0.031700931178840458 7.4262745238957555e-05 0 -0.031761759286486932 7.6913920174565003e-05 0 -0.031727626486269353 0.00010388757550270382 0 -0.031761759286486932 7.6913920174565003e-05 0 -0.031749571142456572 9.4491248611769884e-05 0 -0.031727626486269353 0.00010388757550270382 0 -0.031749571142456572 9.4491248611769884e-05 0 -0.031634264647927617 0.00015010742377012028 0 -0.031727626486269353 0.00010388757550270382 0 -0.031761759286486932 7.6913920174565003e-05 0 -0.031749571142456572 9.4491248611769884e-05 0 -0.031852435994368891 0.00010405305554833771 0 -0.031749571142456572 9.4491248611769884e-05 0 -0.03172949808015766 8.3157294525000163e-05 0 -0.031852435994368891 0.00010405305554833771 0 -0.031529879710706095 0.00053575829542492129 0 -0.029645531678128667 0.00069032753771769298 0 -0.030976293171462076 0.00017721440423325554 0 -0.024333760616301159 0.0011593379601128875 0 -0.02443247890380814 0.0006554858644876744 0 -0.025056340772642273 0.00083189084240416417 0 -0.029197642097320863 0.00019356400528074448 0 -0.027160069929361385 0.00078712327771418014 0 -0.029197642097320863 0.00019356400528074448 0 -0.029372131813687363 0.00014489329895854577 0 -0.029197642097320863 0.00019356400528074448 0 -0.028041580138994767 0.00035217452649702747 0 -0.031749571142456572 9.4491248611769884e-05 0 -0.03172949808015766 8.3157294525000163e-05 0 -0.031677025085237162 0.00010788363204190946 0 -0.031749571142456572 9.4491248611769884e-05 0 -0.031677025085237162 0.00010788363204190946 0 -0.031634264647927617 0.00015010742377012028 0 -0.028041580138994767 0.00035217452649702747 0 -0.026400508138013215 0.00054963991903180084 0 -0.02443247890380814 0.0006554858644876744 0 -0.024772790901317666 0.00044478197235517218 0 -0.024541022531092447 6.7037436512434274e-05 0 -0.024772790901317666 0.00044478197235517218 0 -0.025056340772642273 0.00083189084240416417 0 -0.024963435156922523 1.0014309560899679e-05 0 -0.025056340772642273 0.00083189084240416417 0 -0.025566453438040291 -0.00012012025417898326 0 -0.024963435156922523 1.0014309560899679e-05 0 -0.024772790901317666 0.00044478197235517218 0 -0.024963435156922523 1.0014309560899679e-05 0 -0.024541022531092447 6.7037436512434274e-05 0 -0.02443247890380814 0.0006554858644876744 0 -0.024772790901317666 0.00044478197235517218 0 -0.025056340772642273 0.00083189084240416417 0 -0.026667222711844438 3.3189724662723859e-10 0 -0.027160069929361385 0.00078712327771418014 0 -0.026663289755165336 1.5749945255585105e-06 0 -0.025056340772642273 0.00083189084240416417 0 -0.025566453438040291 -0.00012012025417898326 0 -0.026669705626723151 2.7565300280714454e-06 0 -0.029645531678128667 0.00069032753771769298 0 -0.028698712889849157 -5.4906695355988999e-07 0 -0.029645531678128667 0.00069032753771769298 0 -0.030976293171462076 0.00017721440423325554 0 -0.028698712889849157 -5.4906695355988999e-07 0 -0.030976293171462076 0.00017721440423325554 0 -0.028698712889849157 -5.4906695355988999e-07 0 -0.031157537404006983 -6.0202131465775682e-05 0 -0.031404173146084714 -1.829461353823896e-07 0 -0.028698712889849157 -5.4906695355988999e-07 0 -0.031157537404006983 -6.0202131465775682e-05 0 -0.030976293171462076 0.00017721440423325554 0 -0.031157537404006983 -6.0202131465775682e-05 0 -0.031807125789076234 2.6733869889787393e-05 0 -0.032758503072344486 0.00015091688212512895 0 -0.031157537404006983 -6.0202131465775682e-05 0 -0.031807125789076234 2.6733869889787393e-05 0 -0.032758503072344486 0.00015091688212512895 0 -0.031807125789076234 2.6733869889787393e-05 0 -0.031982364154236553 1.145062180484316e-05 0 -0.031807125789076234 2.6733869889787393e-05 0 -0.031982364154236553 1.145062180484316e-05 0 -0.031757394078692283 0.00010637394569050185 0 -0.031982364154236553 1.145062180484316e-05 0 -0.031852435994368891 0.00010405305554833771 0 -0.031757394078692283 0.00010637394569050185 0 -0.031825687112149365 6.0418989248669875e-05 0 -0.031982364154236553 1.145062180484316e-05 0 -0.031852435994368891 0.00010405305554833771 0 -0.031572423375923954 0.00048636808932879636 0 -0.031852435994368891 0.00010405305554833771 0 -0.031584239769428854 0.00040549892053874876 0 -0.031852435994368891 0.00010405305554833771 0 -0.031584239769428854 0.00040549892053874876 0 -0.031757394078692283 0.00010637394569050185 0 -0.029197642097320863 0.00019356400528074448 0 -0.032353666358187316 -0.00021444234454879785 0 -0.030976293171462076 0.00017721440423325554 0 -0.031584239769428854 0.00040549892053874876 0 -0.031757394078692283 0.00010637394569050185 0 -0.031529879710706095 0.00053575829542492129 0 -0.030976293171462076 0.00017721440423325554 0 -0.031584239769428854 0.00040549892053874876 0 -0.030976293171462076 0.00017721440423325554 0 -0.031807125789076234 2.6733869889787393e-05 0 -0.031757394078692283 0.00010637394569050185 0 -0.035079459078210487 -0.00035831336122269604 0 -0.030975187530285674 0.00016313368997169885 0 -0.034676405063805066 -0.00041309028768676137 0 -0.034719871760279575 -0.0018845503843150731 0 -0.033951331223220235 -0.00069461195190279404 0 -0.034874407131957913 0.00011758972203908134 0 -0.034892341588338545 8.8676594684252379e-05 0 -0.034872712321095636 0.00014438688533860691 0 -0.034874407131957913 0.00011758972203908134 0 -0.034850724369795749 0.00016490224706679332 0 -0.034872712321095636 0.00014438688533860691 0 -0.034874407131957913 0.00011758972203908134 0 -0.034839035137019803 0.00016908468294730037 0 -0.034850724369795749 0.00016490224706679332 0 -0.034874407131957913 0.00011758972203908134 0 -0.034891114349473708 6.9307564687604625e-05 0 -0.0349043310813461 6.1501564101329714e-05 0 -0.034874407131957913 0.00011758972203908134 0 -0.034891114349473708 6.9307564687604625e-05 0 -0.034892341588338545 8.8676594684252379e-05 0 -0.035079459078210487 -0.00035831336122269604 0 -0.034790075276350307 0.00014903503629964504 0 -0.034891114349473708 6.9307564687604625e-05 0 -0.034892341588338545 8.8676594684252379e-05 0 -0.034839844302973939 8.0751788953276881e-05 0 -0.034676405063805066 -0.00041309028768676137 0 -0.034839844302973939 8.0751788953276881e-05 0 -0.034056511845781436 8.8190002568051045e-05 0 -0.034839844302973939 8.0751788953276881e-05 0 -0.034999851624937746 1.4893698126083383e-07 0 -0.034931391965299811 4.67958095873829e-05 0 -0.034839844302973939 8.0751788953276881e-05 0 -0.034999851624937746 1.4893698126083383e-07 0 -0.034639427901271218 9.7348706190924304e-05 0 -0.034999851624937746 1.4893698126083383e-07 0 -0.034931391965299811 4.67958095873829e-05 0 -0.034999881690558468 -7.2391141948055079e-09 0 -0.034891114349473708 6.9307564687604625e-05 0 -0.034839844302973939 8.0751788953276881e-05 0 -0.034931391965299811 4.67958095873829e-05 0 -0.034891114349473708 6.9307564687604625e-05 0 -0.034931391965299811 4.67958095873829e-05 0 -0.0349043310813461 6.1501564101329714e-05 0 -0.0349043310813461 6.1501564101329714e-05 0 -0.034942400161167883 9.2361830591221983e-06 0 -0.034891366492171498 4.0533015873558002e-05 0 -0.034931391965299811 4.67958095873829e-05 0 -0.0349043310813461 6.1501564101329714e-05 0 -0.034942400161167883 9.2361830591221983e-06 0 -0.034999881690558468 -7.2391141948055079e-09 0 -0.034942400161167883 9.2361830591221983e-06 0 -0.034999894345677539 1.0303699682357018e-08 0 -0.034931391965299811 4.67958095873829e-05 0 -0.034999881690558468 -7.2391141948055079e-09 0 -0.034942400161167883 9.2361830591221983e-06 0 -0.034942400161167883 9.2361830591221983e-06 0 -0.034999894345677539 1.0303699682357018e-08 0 -0.034920277100019811 -2.1468191495890907e-05 0 -0.034920277100019811 -2.1468191495890907e-05 0 -0.034891366492171498 4.0533015873558002e-05 0 -0.03477750613455366 2.5623037544578136e-05 0 -0.034942400161167883 9.2361830591221983e-06 0 -0.034920277100019811 -2.1468191495890907e-05 0 -0.034891366492171498 4.0533015873558002e-05 0 -0.034891366492171498 4.0533015873558002e-05 0 -0.034807900763935147 0.00010270571322620668 0 -0.03477750613455366 2.5623037544578136e-05 0 -0.034807900763935147 0.00010270571322620668 0 -0.034796118863562195 0.00016471958098