<?xml version="1.0"?>
<VTKFile type="UnstructuredGrid" version="0.1" byte_order="LittleEndian">
<UnstructuredGrid>
<Piece NumberOfPoints="30896" NumberOfCells="10754">
<Points>
<DataArray type="Float64" NumberOfComponents="3" format="ascii">
-0.5 -0.5 0 -0.49999999999999728 -0.4951078961474179 0 -0.47556137958802641 -0.4863134336798039 0 -0.49999999999999728 -0.4951078961474179 0 -0.48888184660152939 -0.47928258675589552 0 -0.47556137958802641 -0.4863134336798039 0 -0.49999999999999728 -0.4951078961474179 0 -0.47556137958802641 -0.4863134336798039 0 -0.5 -0.5 0 -0.47556137958802641 -0.4863134336798039 0 -0.45469313645163489 -0.5 0 -0.49999999999999728 -0.4951078961474179 0 -0.48888184660152939 -0.47928258675589552 0 -0.5 -0.4678935797153464 0 -0.48888184660152939 -0.47928258675589552 0 -0.47642501453424091 -0.46426639560023519 0 -0.5 -0.4678935797153464 0 -0.48888184660152939 -0.47928258675589552 0 -0.47556137958802641 -0.4863134336798039 0 -0.47642501453424091 -0.46426639560023519 0 -0.45469313645163489 -0.5 0 -0.45112275917605582 -0.47751897121218889 0 -0.42668413876408529 -0.46872450874457411 0 -0.47556137958802641 -0.4863134336798039 0 -0.45469313645163489 -0.5 0 -0.45112275917605582 -0.47751897121218889 0 -0.47556137958802641 -0.4863134336798039 0 -0.45112275917605582 -0.47751897121218889 0 -0.47642501453424091 -0.46426639560023519 0 -0.47556137958802641 -0.4863134336798039 0 -0.45112275917605582 -0.47751897121218889 0 -0.45112275917605582 -0.47751897121218889 0 -0.42668413876408529 -0.46872450874457411 0 -0.44993955490824161 -0.45591906818088718 0 -0.44530484513786373 -0.43634110900104739 0 -0.42814680334366051 -0.4507704629762338 0 -0.45112275917605582 -0.47751897121218889 0 -0.44993955490824161 -0.45591906818088718 0 -0.42668413876408529 -0.46872450874457411 0 -0.45112275917605582 -0.47751897121218889 0 -0.44993955490824161 -0.45591906818088718 0 -0.47642501453424091 -0.46426639560023519 0 -0.44993955490824161 -0.45591906818088718 0 -0.47265242256893941 -0.43851018614216059 0 -0.44530484513786373 -0.43634110900104739 0 -0.44993955490824161 -0.45591906818088718 0 -0.47265242256893941 -0.43851018614216059 0 -0.47642501453424091 -0.46426639560023519 0 -0.47265242256893941 -0.43851018614216059 0 -0.47642501453424091 -0.46426639560023519 0 -0.50000000000001488 -0.440679263283275 0 -0.47642501453424091 -0.46426639560023519 0 -0.5 -0.4678935797153464 0 -0.50000000000001488 -0.440679263283275 0 -0.47265242256893941 -0.43851018614216059 0 -0.50000000000001488 -0.440679263283275 0 -0.47265242256893941 -0.43851018614216059 0 -0.50000000000001488 -0.440679263283275 0 -0.48181425948517698 -0.42045974715113688 0 -0.50000000000001488 -0.440679263283275 0 -0.5 -0.41156950275764981 0 -0.48181425948517698 -0.42045974715113688 0 -0.5 -0.41156950275764981 0 -0.48181425948517698 -0.42045974715113688 0 -0.4845316273001109 -0.39572849247115149 0 -0.48181425948517698 -0.42045974715113688 0 -0.4845316273001109 -0.39572849247115149 0 -0.46832053264262152 -0.40285976570587362 0 -0.47265242256893941 -0.43851018614216059 0 -0.48181425948517698 -0.42045974715113688 0 -0.45494047923195308 -0.41731935769620471 0 -0.5 -0.3824597422320245 0 -0.4845316273001109 -0.39572849247115149 0 -0.47893177514547453 -0.37576308150860971 0 -0.5 -0.41156950275764981 0 -0.5 -0.3824597422320245 0 -0.4845316273001109 -0.39572849247115149 0 -0.4845316273001109 -0.39572849247115149 0 -0.46767420915850161 -0.38937209213934038 0 -0.46832053264262152 -0.40285976570587362 0 -0.4845316273001109 -0.39572849247115149 0 -0.47893177514547453 -0.37576308150860971 0 -0.46767420915850161 -0.38937209213934038 0 -0.47893177514547453 -0.37576308150860971 0 -0.46767420915850161 -0.38937209213934038 0 -0.45227661575813988 -0.37789141437863999 0 -0.46767420915850161 -0.38937209213934038 0 -0.4553314831780042 -0.39730905521101673 0 -0.45227661575813988 -0.37789141437863999 0 -0.4553314831780042 -0.39730905521101673 0 -0.46832053264262152 -0.40285976570587362 0 -0.45494047923195308 -0.41731935769620471 0 -0.46767420915850161 -0.38937209213934038 0 -0.4553314831780042 -0.39730905521101673 0 -0.46832053264262152 -0.40285976570587362 0 -0.4553314831780042 -0.39730905521101673 0 -0.45494047923195308 -0.41731935769620471 0 -0.43748468617581038 -0.40293469790464193 0 -0.4553314831780042 -0.39730905521101673 0 -0.45227661575813988 -0.37789141437863999 0 -0.43748468617581038 -0.40293469790464193 0 -0.45227661575813988 -0.37789141437863999 0 -0.4343645645853691 -0.38569248880880852 0 -0.43723425011550399 -0.3740873654345962 0 -0.45227661575813988 -0.37789141437863999 0 -0.43748468617581038 -0.40293469790464193 0 -0.45227661575813988 -0.37789141437863999 0 -0.4343645645853691 -0.38569248880880852 0 -0.43748468617581038 -0.40293469790464193 0 -0.47265242256893941 -0.43851018614216059 0 -0.45494047923195308 -0.41731935769620471 0 -0.44530484513786373 -0.43634110900104739 0 -0.47265242256893941 -0.43851018614216059 0 -0.44530484513786373 -0.43634110900104739 0 -0.48181425948517698 -0.42045974715113688 0 -0.46832053264262152 -0.40285976570587362 0 -0.45494047923195308 -0.41731935769620471 0 -0.45494047923195308 -0.41731935769620471 0 -0.43481357268735787 -0.42140601871702288 0 -0.43748468617581038 -0.40293469790464193 0 -0.45494047923195308 -0.41731935769620471 0 -0.44530484513786373 -0.43634110900104739 0 -0.43481357268735787 -0.42140601871702288 0 -0.44530484513786373 -0.43634110900104739 0 -0.41795726770678809 -0.43417203185993408 0 -0.43481357268735787 -0.42140601871702288 0 -0.41838058518437432 -0.4162628971232864 0 -0.41795726770678809 -0.43417203185993408 0 -0.44530484513786373 -0.43634110900104739 0 -0.43481357268735787 -0.42140601871702288 0 -0.41795726770678809 -0.43417203185993408 0 -0.43481357268735787 -0.42140601871702288 0 -0.41838058518437432 -0.4162628971232864 0 -0.43748468617581038 -0.40293469790464193 0 -0.41838058518437432 -0.4162628971232864 0 -0.40387362494084011 -0.42303636282091339 0 -0.39828894518590541 -0.40803159407563722 0 -0.41838058518437432 -0.4162628971232864 0 -0.41795726770678809 -0.43417203185993408 0 -0.40387362494084011 -0.42303636282091339 0 -0.4343645645853691 -0.38569248880880852 0 -0.42331126737778718 -0.39508519651506918 0 -0.42151600349960411 -0.37846376981109492 0 -0.4343645645853691 -0.38569248880880852 0 -0.42151600349960411 -0.37846376981109492 0 -0.43723425011550399 -0.3740873654345962 0 -0.41838058518437432 -0.4162628971232864 0 -0.43748468617581038 -0.40293469790464193 0 -0.42331126737778718 -0.39508519651506918 0 -0.4343645645853691 -0.38569248880880852 0 -0.43748468617581038 -0.40293469790464193 0 -0.42331126737778718 -0.39508519651506918 0 -0.41838058518437432 -0.4162628971232864 0 -0.4077511286599933 -0.38848944906560812 0 -0.41838058518437432 -0.4162628971232864 0 -0.42331126737778718 -0.39508519651506918 0 -0.4077511286599933 -0.38848944906560812 0 -0.41838058518437432 -0.4162628971232864 0 -0.4077511286599933 -0.38848944906560812 0 -0.39828894518590541 -0.40803159407563722 0 -0.42331126737778718 -0.39508519651506918 0 -0.4077511286599933 -0.38848944906560812 0 -0.42151600349960411 -0.37846376981109492 0 -0.4077511286599933 -0.38848944906560812 0 -0.42151600349960411 -0.37846376981109492 0 -0.40911244233707361 -0.3733511811947916 0 -0.4077511286599933 -0.38848944906560812 0 -0.39268944785074639 -0.39496098019696357 0 -0.38727979656423278 -0.38134629288484628 0 -0.4077511286599933 -0.38848944906560812 0 -0.38727979656423278 -0.38134629288484628 0 -0.39712167213561189 -0.36071600100792989 0 -0.4077511286599933 -0.38848944906560812 0 -0.39268944785074639 -0.39496098019696357 0 -0.39828894518590541 -0.40803159407563722 0 -0.39268944785074639 -0.39496098019696357 0 -0.37743792099285423 -0.40197658476176312 0 -0.38727979656423278 -0.38134629288484628 0 -0.37743792099285423 -0.40197658476176312 0 -0.38727979656423278 -0.38134629288484628 0 -0.37743792099285423 -0.40197658476176312 0 -0.38727979656423278 -0.38134629288484628 0 -0.36120022784666578 -0.38959513091372089 0 -0.39268944785074639 -0.39496098019696357 0 -0.37743792099285423 -0.40197658476176312 0 -0.39828894518590541 -0.40803159407563722 0 -0.40387362494084011 -0.42303636282091339 0 -0.38315958056171501 -0.41736888227639313 0 -0.39060969027571252 -0.43200295471882089 0 -0.41795726770678809 -0.43417203185993408 0 -0.39060969027571252 -0.43200295471882089 0 -0.41795726770678809 -0.43417203185993408 0 -0.40387362494084011 -0.42303636282091339 0 -0.39060969027571252 -0.43200295471882089 0 -0.40387362494084011 -0.42303636282091339 0 -0.39828894518590541 -0.40803159407563722 0 -0.38315958056171501 -0.41736888227639313 0 -0.37743792099285423 -0.40197658476176312 0 -0.39828894518590541 -0.40803159407563722 0 -0.38315958056171501 -0.41736888227639313 0 -0.37743792099285423 -0.40197658476176312 0 -0.38315958056171501 -0.41736888227639313 0 -0.36759604542147561 -0.4226068766386798 0 -0.39060969027571252 -0.43200295471882089 0 -0.36326211284463678 -0.42983387757770769 0 -0.38315958056171501 -0.41736888227639313 0 -0.39060969027571252 -0.43200295471882089 0 -0.36759604542147561 -0.4226068766386798 0 -0.39060969027571252 -0.43200295471882089 0 -0.37780689794014433 -0.45113558380934432 0 -0.40224551835211481 -0.45993004627695921 0 -0.39060969027571252 -0.43200295471882089 0 -0.37780689794014433 -0.45113558380934432 0 -0.36326211284463678 -0.42983387757770769 0 -0.41795726770678809 -0.43417203185993408 0 -0.39060969027571252 -0.43200295471882089 0 -0.40224551835211481 -0.45993004627695921 0 -0.37780689794014433 -0.45113558380934432 0 -0.40224551835211481 -0.45993004627695921 0 -0.37780689794014433 -0.45113558380934432 0 -0.38511263920424837 -0.46918695782684849 0 -0.36944275723482128 -0.46524893742037809 0 -0.37780689794014433 -0.45113558380934432 0 -0.40224551835211481 -0.45993004627695921 0 -0.38511263920424837 -0.46918695782684849 0 -0.38511263920424837 -0.46918695782684849 0 -0.37384741698460489 -0.48507156445338823 0 -0.36944275723482128 -0.46524893742037809 0 -0.38511263920424837 -0.4691869
[...]
<PointData Scalars="" Vectors="displacement," Tensors="">
<DataArray type="Float64" Name="displacement" NumberOfComponents="3" format="ascii">
-0.035000654851691126 3.8895549768682014e-07 0 -0.034997861215997919 -1.5075080956252691e-07 0 -0.032748406102311819 7.9473114325928569e-05 0 -0.034999729833372552 9.1488947163138902e-08 0 -0.034755047457036843 5.313325298826444e-05 0 -0.034568491598082514 4.0195500305799628e-05 0 -0.034999403925358635 -1.8085313116450186e-07 0 -0.033638033765716412 -2.717913182595682e-05 0 -0.035000654851691126 3.8895549768682014e-07 0 -0.032748406102311819 7.9473114325928569e-05 0 -0.031826208844621215 -2.9116333763992297e-07 0 -0.034999729833372552 9.1488947163138902e-08 0 -0.034755047457036843 5.313325298826444e-05 0 -0.034999267844594104 6.4081027381577234e-08 0 -0.034755047457036843 5.313325298826444e-05 0 -0.034262205485514056 8.0952731495508528e-05 0 -0.034999267844594104 6.4081027381577234e-08 0 -0.034755047457036843 5.313325298826444e-05 0 -0.034568491598082514 4.0195500305799628e-05 0 -0.034262205485514056 8.0952731495508528e-05 0 -0.031826208844621215 -2.9116333763992297e-07 0 -0.030989008312860531 3.2271883670615092e-05 0 -0.029636838897270045 -0.00021330906283321442 0 -0.032748406102311819 7.9473114325928569e-05 0 -0.031826208844621215 -2.9116333763992297e-07 0 -0.030989008312860531 3.2271883670615092e-05 0 -0.034568491598082514 4.0195500305799628e-05 0 -0.033793539037982878 -0.00010736414636194864 0 -0.034262205485514056 8.0952731495508528e-05 0 -0.033638033765716412 -2.717913182595682e-05 0 -0.032387660672635765 -6.7876245589674491e-05 0 -0.032387660672635765 -6.7876245589674491e-05 0 -0.031195956042136555 -0.00028272734451177965 0 -0.033237332443427636 -7.8550621554251751e-05 0 -0.032719531314011334 -0.00012083743459448099 0 -0.032244239191909212 -0.00032305447289572467 0 -0.033793539037982878 -0.00010736414636194864 0 -0.033237332443427636 -7.8550621554251751e-05 0 -0.032720807712269255 -0.00037034731220728616 0 -0.033793539037982878 -0.00010736414636194864 0 -0.033237332443427636 -7.8550621554251751e-05 0 -0.034262205485514056 8.0952731495508528e-05 0 -0.033237332443427636 -7.8550621554251751e-05 0 -0.03390058857516285 6.5292105239400213e-05 0 -0.032719531314011334 -0.00012083743459448099 0 -0.033237332443427636 -7.8550621554251751e-05 0 -0.03390058857516285 6.5292105239400213e-05 0 -0.034262205485514056 8.0952731495508528e-05 0 -0.03390058857516285 6.5292105239400213e-05 0 -0.034262205485514056 8.0952731495508528e-05 0 -0.034998762019527521 1.8982373708017314e-07 0 -0.034262205485514056 8.0952731495508528e-05 0 -0.034999267844594104 6.4081027381577234e-08 0 -0.034998762019527521 1.8982373708017314e-07 0 -0.034224958426502666 9.841978302675362e-05 0 -0.034999706591714953 -5.5556739855901599e-08 0 -0.034550083653612763 0.00021195802692552579 0 -0.034999395240996593 5.2197515788856431e-08 0 -0.034758808819351034 0.00011720041951658518 0 -0.034999395240996593 5.2197515788856431e-08 0 -0.034999710952290951 7.3807943023093189e-08 0 -0.034758808819351034 0.00011720041951658518 0 -0.034999710952290951 7.3807943023093189e-08 0 -0.034758808819351034 0.00011720041951658518 0 -0.034879864519491786 7.9199295321505787e-05 0 -0.034758808819351034 0.00011720041951658518 0 -0.034879864519491786 7.9199295321505787e-05 0 -0.034680937495461153 0.00023625126987523166 0 -0.034550083653612763 0.00021195802692552579 0 -0.034758808819351034 0.00011720041951658518 0 -0.034418628047129675 0.00041314599725444804 0 -0.034999845236935175 3.029771136472372e-08 0 -0.034879864519491786 7.9199295321505787e-05 0 -0.034949514784442352 0.00011089675601288122 0 -0.034999710952290951 7.3807943023093189e-08 0 -0.034999845236935175 3.029771136472372e-08 0 -0.034879864519491786 7.9199295321505787e-05 0 -0.034879864519491786 7.9199295321505787e-05 0 -0.034801270080192521 0.00021927276568911453 0 -0.034680937495461153 0.00023625126987523166 0 -0.034879864519491786 7.9199295321505787e-05 0 -0.034949514784442352 0.00011089675601288122 0 -0.034801270080192521 0.00021927276568911453 0 -0.034949514784442352 0.00011089675601288122 0 -0.034801270080192521 0.00021927276568911453 0 -0.034936025121984536 0.00040999098568299843 0 -0.034801270080192521 0.00021927276568911453 0 -0.034568305707028665 0.00039013504587259707 0 -0.034936025121984536 0.00040999098568299843 0 -0.034568305707028665 0.00039013504587259707 0 -0.034680937495461153 0.00023625126987523166 0 -0.034418628047129675 0.00041314599725444804 0 -0.034801270080192521 0.00021927276568911453 0 -0.034568305707028665 0.00039013504587259707 0 -0.034680937495461153 0.00023625126987523166 0 -0.034568305707028665 0.00039013504587259707 0 -0.034418628047129675 0.00041314599725444804 0 -0.034199058705113736 0.00071654989695414748 0 -0.034568305707028665 0.00039013504587259707 0 -0.034936025121984536 0.00040999098568299843 0 -0.034199058705113736 0.00071654989695414748 0 -0.033108372732996168 0.0015280812559816646 0 -0.033423232274251723 0.00080262208284348415 0 -0.032964482178439947 0.0009517167748244956 0 -0.034568837747673435 0.00090564722748269597 0 -0.033976716511434066 0.00079904851375487166 0 -0.033108372732996168 0.0015280812559816646 0 -0.033423232274251723 0.00080262208284348415 0 -0.034199058705113736 0.00071654989695414748 0 -0.034550083653612763 0.00021195802692552579 0 -0.034418628047129675 0.00041314599725444804 0 -0.034247058334048723 0.00049435226199239012 0 -0.034224958426502666 9.841978302675362e-05 0 -0.033482322044049703 0.00014048843325152762 0 -0.034758808819351034 0.00011720041951658518 0 -0.034680937495461153 0.00023625126987523166 0 -0.034418628047129675 0.00041314599725444804 0 -0.034418628047129675 0.00041314599725444804 0 -0.034189831447856311 0.00056495990689105192 0 -0.034199058705113736 0.00071654989695414748 0 -0.034418628047129675 0.00041314599725444804 0 -0.034247058334048723 0.00049435226199239012 0 -0.034189831447856311 0.00056495990689105192 0 -0.033482322044049703 0.00014048843325152762 0 -0.032728438215367951 3.91043846005621e-06 0 -0.034189831447856311 0.00056495990689105192 0 -0.034023024332035912 0.00049351145334623108 0 -0.034032529608850379 0.00050669109514741531 0 -0.034247058334048723 0.00049435226199239012 0 -0.034189831447856311 0.00056495990689105192 0 -0.034032529608850379 0.00050669109514741531 0 -0.034189831447856311 0.00056495990689105192 0 -0.034023024332035912 0.00049351145334623108 0 -0.034199058705113736 0.00071654989695414748 0 -0.034023024332035912 0.00049351145334623108 0 -0.033831559112115966 0.00045875965049375027 0 -0.033740210339952649 0.00041680668573476962 0 -0.034023024332035912 0.00049351145334623108 0 -0.034032529608850379 0.00050669109514741531 0 -0.033831559112115966 0.00045875965049375027 0 -0.033423232274251723 0.00080262208284348415 0 -0.033775418349637362 0.0004619064358557857 0 -0.033054695483584737 0.00054133891311831483 0 -0.033423232274251723 0.00080262208284348415 0 -0.033054695483584737 0.00054133891311831483 0 -0.032964482178439947 0.0009517167748244956 0 -0.034023024332035912 0.00049351145334623108 0 -0.034199058705113736 0.00071654989695414748 0 -0.033775418349637362 0.0004619064358557857 0 -0.033423232274251723 0.00080262208284348415 0 -0.034199058705113736 0.00071654989695414748 0 -0.033775418349637362 0.0004619064358557857 0 -0.033880965076071072 0.00047563404616066595 0 -0.03383625975107335 0.00015884454568521162 0 -0.034023024332035912 0.00049351145334623108 0 -0.033775418349637362 0.0004619064358557857 0 -0.033581309334455016 -3.5378587802334312e-05 0 -0.034023024332035912 0.00049351145334623108 0 -0.033599008945395518 0.00051398066259425402 0 -0.033740210339952649 0.00041680668573476962 0 -0.033775418349637362 0.0004619064358557857 0 -0.033581309334455016 -3.5378587802334312e-05 0 -0.033054695483584737 0.00054133891311831483 0 -0.033581309334455016 -3.5378587802334312e-05 0 -0.033054695483584737 0.00054133891311831483 0 -0.032647900906554589 -2.666077125890127e-05 0 -0.033599008945395518 0.00051398066259425402 0 -0.03364449851379657 0.00041971506535993819 0 -0.033552881252089481 0.00038398747658396004 0 -0.033599008945395518 0.00051398066259425402 0 -0.033552881252089481 0.00038398747658396004 0 -0.033365709903247262 0.00045595067052250123 0 -0.033599008945395518 0.00051398066259425402 0 -0.03364449851379657 0.00041971506535993819 0 -0.033740210339952649 0.00041680668573476962 0 -0.03364449851379657 0.00041971506535993819 0 -0.033658370373340532 0.00042184012948449299 0 -0.033552881252089481 0.00038398747658396004 0 -0.032846334736133603 0.00066743879819333154 0 -0.032430094746349995 0.00085145602571650748 0 -0.032054588698895013 0.00094860958106476228 0 -0.031166761520102816 0.0012545293207037581 0 -0.031526509049046435 0.00024653593787108953 0 -0.03364449851379657 0.00041971506535993819 0 -0.033658370373340532 0.00042184012948449299 0 -0.033740210339952649 0.00041680668573476962 0 -0.033831559112115966 0.00045875965049375027 0 -0.03354125731524276 0.00041673879186911823 0 -0.033658140437702384 0.00044394959238083217 0 -0.032728438215367951 3.91043846005621e-06 0 -0.031869254455409259 -8.9869238393352371e-05 0 -0.034032529608850379 0.00050669109514741531 0 -0.033831559112115966 0.00045875965049375027 0 -0.033658140437702384 0.00044394959238083217 0 -0.033831559112115966 0.00045875965049375027 0 -0.033740210339952649 0.00041680668573476962 0 -0.03354125731524276 0.00041673879186911823 0 -0.033658370373340532 0.00042184012948449299 0 -0.033740210339952649 0.00041680668573476962 0 -0.03354125731524276 0.00041673879186911823 0 -0.033658370373340532 0.00042184012948449299 0 -0.03354125731524276 0.00041673879186911823 0 -0.033215980061637951 0.00047214529564588238 0 -0.031869254455409259 -8.9869238393352371e-05 0 -0.031095665751187905 -4.1795414732096622e-06 0 -0.03354125731524276 0.00041673879186911823 0 -0.033658140437702384 0.00044394959238083217 0 -0.033215980061637951 0.00047214529564588238 0 -0.030078879911481036 -0.00054881168342387637 0 -0.029280876129642273 -0.00032528059130920088 0 -0.031196987406063838 -0.00059479107387830409 0 -0.030078879911481036 -0.00054881168342387637 0 -0.029280876129642273 -0.00032528059130920088 0 -0.028864035553491312 -0.00031494820932298847 0 -0.031456517317969987 -0.00040681744869959036 0 -0.030078879911481036 -0.00054881168342387637 0 -0.031196987406063838 -0.00059479107387830409 0 -0.029470076684649054 -0.00026783348960720735 0 -0.03016410069327892 -0.00035519542977598389 0 -0.029280876129642273 -0.00032528059130920088 0 -0.028866835153912015 -0.00014422346169108138 0 -0.028716459842599185 -7.5151383143144299e-05 0 -0.029280876129642273 -0.00032528059130920088 0 -0.029101981625290898 -0.00027703750741724553 0 -0.028866835153912015 -0.00014422346169108138 0 -0.028866835153912015 -0.00014422346169108138 0 -0.028634852293043401 0.00015273314612645477 0 -0.028716459842599185 -7.5151383143144299e-05 0 -0.028866835153912015 -0.00014422346169108138 0 -0.02855654897098794 -3.4318292231247968e-05 0 -0.028634852293043401 0.00015273314612645477 0 -0.027527653370519448 9.3655742817332666e-07 0 -0.025355161371629683 -3.1165937957633496e-05 0 -0.025840458837957041 -6.8022454755904203e-07 0 -0.02855654897098794 -3.4318292231247968e-05 0 -0.027534786183459777 -9.1742530975028136e-07 0 -0.028634852293043401 0.00015273314612645477 0 -0.027528901757348533 -2.7509684553927079e-07 0 -0.026982816592130747 -7.3705526248038934e-05 0 -0.02855654897098794 -3.4318292231247968e-05 0 -0.027534786183459777 -9.1742530975028136e-07 0 -0.029085052919418267 -0.00027673989819858367 0 -0.028866835153912015 -0.00014422346169108138 0 -0.02855654897098794 -3.4318292231247968e-05 0 -0.029085052919418267 -0.00027673989819858367 0 -0.029101981625290898 -0.00027703750741724553 0 -0.028866835153912015 -0.00014422346169108138 0 -0.029085052919418267 -0.00027673989819858367 0 -0.029101981625290898 -0.00027703750741724553 0 -0.029085052919418267 -0.00027673989819858367 0 -0.029636838897270045 -0.00021330906283321442 0 -0.031826208844621215 -2.9116333763992297e-07 0 -0.029085052919418267 -0.00027673989819858367 0 -0.029636838897270045 -0.00021330906283321442 0 -0.031826208844621215 -2.9116333763992297e-07 0 -0.027534786183459777 -9.1742530975028136e-07 0 -0.029085052919418267 -0.00027673989819858367 0 -0.033237332443427636 -7.8550621554251751e-05 0 -0.032720807712269255 -0.00037034731220728616 0 -0.032244239191909212 -0.00032305447289572467 0 -0.032719531314011334 -0.00012083743459448099 0 -0.031456517317969987 -0.00040681744869959036 0 -0.032244239191909212 -0.00032305447289572467 0 -0.031456517317969987 -0.00040681744869959036 0 -0.031196987406063838 -0.00059479107387830409 0 -0.032244239191909212 -0.00032305447289572467 0 -0.031196987406063838 -0.00059479107387830409 0 -0.032720807712269255 -0.00037034731220728616 0 -0.032244239191909212 -0.00032305447289572467 0 -0.03016410069327892 -0.00035519542977598389 0 -0.031195956042136555 -0.00028272734451177965 0 -0.028413318044069411 0.0015843717251407248 0 -0.028556114398516883 0.0015005258693352288 0 -0.02833473103436206 0.0014521461218343756 0 -0.028413318044069411 0.0015843717251407248 0 -0.028788417897927729 0.0017958529528631926 0 -0.028556114398516883 0.0015005258693352288 0 -0.031854591978049594 0.0014391912199326494 0 -0.030926284638538228 0.001767959988555031 0 -0.028788417897927729 0.0017958529528631926 0 -0.028749313239209286 0.0013917960409870409 0 -0.028556114398516883 0.0015005258693352288 0 -0.034724022423541043 0.0011820824492548897 0 -0.034547593569238748 0.00064945023197073232 0 -0.033316298258108744 0.0018568929223693629 0 -0.034547593569238748 0.00064945023197073232 0 -0.033351463187601946 0.00072602729085246122 0 -0.033316298258108744 0.0018568929223693629 0 -0.034724022423541043 0.0011820824492548897 0 -0.034547593569238748 0.00064945023197073232 0 -0.034965084119932092 0.00060281277708076843 0 -0.034547593569238748 0.00064945023197073232 0 -0.034476247194930275 -8.6513784799842236e-05 0 -0.034918319282230562 0.00014343538181554709 0 -0.034999314076403394 -1.7082849491020251e-07 0 -0.034476247194930275 -8.6513784799842236e-05 0 -0.034918319282230562 0.00014343538181554709 0 -0.034999314076403394 -1.7082849491020251e-07 0 -0.034476247194930275 -8.6513784799842236e-05 0 -0.034999672804874739 1.2389838819306964e-07 0 -0.034547593569238748 0.00064945023197073232 0 -0.034476247194930275 -8.6513784799842236e-05 0 -0.033351463187601946 0.00072602729085246122 0 -0.034476247194930275 -8.6513784799842236e-05 0 -0.031884810047666585 -0.00087526225244950078 0 -0.033351463187601946 0.00072602729085246122 0 -0.031884810047666585 -0.00087526225244950078 0 -0.03153118359177514 0.00073439079338210873 0 -0.033351463187601946 0.00072602729085246122 0 -0.034372134352894643 -0.00014820654016133421 0 -0.03355294424794255 -0.0004049491703113993 0 -0.034476247194930275 -8.6513784799842236e-05 0 -0.034999672804874739 1.2389838819306964e-07 0 -0.03500917841947894 -7.2054433158593234e-05 0 -0.03355294424794255 -0.0004049491703113993 0 -0.031980182517067572 -0.00064621002458579275 0 -0.031884810047666585 -0.00087526225244950078 0 -0.031184329331011038 -0.00017333410852610857 0 -0.029751483989239373 -0.0010095974037746065 0 -0.034999672804874739 1.2389838819306964e-07 0 -0.03500917841947894 -7.2054433158593234e-05 0 -0.035000105079678004 -8.3005156984889205e-08 0 -0.03500917841947894 -7.2054433158593234e-05 0 -0.035000105079678004 -8.3005156984889205e-08 0 -0.034993978651069658 -5.6691986619591936e-06 0 -0.031884810047666585 -0.00087526225244950078 0 -0.031184329331011038 -0.00017333410852610857 0 -0.03153118359177514 0.00073439079338210873 0 -0.031184329331011038 -0.00017333410852610857 0 -0.030567335108403707 0.00041169276073742527 0 -0.030313348010312383 -7.4797160219318101e-05 0 -0.031184329331011038 -0.00017333410852610857 0 -0.030567335108403707 0.00041169276073742527 0 -0.03153118359177514 0.00073439079338210873 0 -0.030926284638538228 0.001767959988555031 0 -0.030115078973409877 0.0017213522553816149 0 -0.030567335108403707 0.00041169276073742527 0 -0.03153118359177514 0.00073439079338210873 0 -0.030125175522972423 0.0012974340057838331 0 -0.03153118359177514 0.00073439079338210873 0 -0.033316298258108744 0.0018568929223693629 0 -0.030062857358406771 0.0017123979301928464 0 -0.03153118359177514 0.00073439079338210873 0 -0.030062857358406771 0.0017123979301928464 0 -0.030125175522972423 0.0012974340057838331 0 -0.03153118359177514 0.00073439079338210873 0 -0.033351463187601946 0.00072602729085246122 0 -0.033316298258108744 0.0018568929223693629 0 -0.028788417897927729 0.0017958529528631926 0 -0.029083722400246967 0.0015055932442551143 0 -0.029558249898632656 0.0015809776373517672 0 -0.028788417897927729 0.0017958529528631926 0 -0.029083722400246967 0.0015055932442551143 0 -0.028749313239209286 0.0013917960409870409 0 -0.028788417897927729 0.0017958529528631926 0 -0.029558249898632656 0.0015809776373517672 0 -0.030062857358406771 0.0017123979301928464 0 -0.029558249898632656 0.0015809776373517672 0 -0.029852179197530863 0.0017067442042218528 0 -0.030062857358406771 0.0017123979301928464 0 -0.029852179197530863 0.0017067442042218528 0 -0.029966069911120431 0.0019667426523654534 0 -0.029675025797656945 0.0015490599221574619 0 -0.029852179197530863 0.0017067442042218528 0 -0.029966069911120431 0.0019667426523654534 0 -0.030062857358406771 0.0017123979301928464 0 -0.029966069911120431 0.0019667426523654534 0 -0.029782598430354659 0.0013817575342312195 0 -0.029675025797656945 0.0015490599221574619 0 -0.029558249898632656 0.0015809776373517672 0 -0.029852179197530863 0.0017067442042218528 0 -0.029675025797656945 0.0015490599221574619 0 -0.029026001872605522 0.00097211248900735644 0 -0.027888812520661783 0.00084153427122109496 0 -0.028360729833782076 0.001370128088661596 0 -0.028777243405090948 0.0018768157674914146 0 -0.029026001872605522 0.00097211248900735644 0 -0.028360729833782076 0.001370128088661596 0 -0.029135926342830805 0.0020699086608173363 0 -0.030238469666238194 0.0012495665673755341 0 -0.029026001872605522 0.00097211248900735644 0 -0.030125175522972423 0.0012974340057838331 0 -0.029825423027657252 0.00036980377169180381 0 -0.028777243405090948 0.0018768157674914146 0 -0.029026001872605522 0.00097211248900735644 0 -0.030125175522972423 0.0012974340057838331 0 -0.029966069911120431 0.0019667426523654534 0 -0.030062857358406771 0.0017123979301928464 0 -0.030125175522972423 0.0012974340057838331 0 -0.031184329331011038 -0.00017333410852610857 0 -0.030313348010312383 -7.4797160219318101e-05 0 -0.029751483989239373 -0.0010095974037746065 0 -0.029026001872605522 0.00097211248900735644 0 -0.029825423027657252 0.00036980377169180381 0 -0.029245205860223781 -0.00017446508114799507 0 -0.030567335108403707 0.00041169276073742527 0 -0.030125175522972423 0.0012974340057838331 0 -0.029825423027657252 0.00036980377169180381 0 -0.030567335108403707 0.00041169276073742527 0 -0.029825423027657252 0.00036980377169180381 0 -0.030313348010312383 -7.4797160219318101e-05 0 -0.029825423027657252 0.00036980377169180381 0 -0.029659568005047522 -0.0003502234714454404 0 -0.029245205860223781 -0.00017446508114799507 0 -0.029659568005047522 -0.0003502234714454404 0 -0.02915284852765393 -0.00067680232756535028 0 -0.029245205860223781 -0.00017446508114799507 0 -0.029825423027657252 0.00036980377169180381 0 -0.029659568005047522 -0.0003502234714454404 0 -0.030313348010312383 -7.4797160219318101e-05 0 -0.035000105079678004 -8.3005156984889205e-08 0 -0.034993978651069658 -5.6691986619591936e-06 0 -0.034999916693674055 3.7233530247360484e-08 0 -0.029659568005047522 -0.0003502234714454404 0 -0.030313348010312383 -7.4797160219318101e-05 0 -0.029751483989239373 -0.0010095974037746065 0 -0.029659568005047522 -0.0003502234714454404 0 -0.029751483989239373 -0.0010095974037746065 0 -0.02915284852765393 -0.00067680232756535028 0 -0.034993978651069658 -5.6691986619591936e-06 0 -0.034998530282169177 -2.1220435604758568e-07 0 -0.034999916693674055 3.7233530247360484e-08 0 -0.0319801825170