<?xml version="1.0"?>
<VTKFile type="UnstructuredGrid" version="0.1" byte_order="LittleEndian">
<UnstructuredGrid>
<Piece NumberOfPoints="30896" NumberOfCells="10754">
<Points>
<DataArray type="Float64" NumberOfComponents="3" format="ascii">
-0.5 -0.5 0 -0.49999999999999728 -0.4951078961474179 0 -0.47556137958802641 -0.4863134336798039 0 -0.49999999999999728 -0.4951078961474179 0 -0.48888184660152939 -0.47928258675589552 0 -0.47556137958802641 -0.4863134336798039 0 -0.49999999999999728 -0.4951078961474179 0 -0.47556137958802641 -0.4863134336798039 0 -0.5 -0.5 0 -0.47556137958802641 -0.4863134336798039 0 -0.45469313645163489 -0.5 0 -0.49999999999999728 -0.4951078961474179 0 -0.48888184660152939 -0.47928258675589552 0 -0.5 -0.4678935797153464 0 -0.48888184660152939 -0.47928258675589552 0 -0.47642501453424091 -0.46426639560023519 0 -0.5 -0.4678935797153464 0 -0.48888184660152939 -0.47928258675589552 0 -0.47556137958802641 -0.4863134336798039 0 -0.47642501453424091 -0.46426639560023519 0 -0.45469313645163489 -0.5 0 -0.45112275917605582 -0.47751897121218889 0 -0.42668413876408529 -0.46872450874457411 0 -0.47556137958802641 -0.4863134336798039 0 -0.45469313645163489 -0.5 0 -0.45112275917605582 -0.47751897121218889 0 -0.47556137958802641 -0.4863134336798039 0 -0.45112275917605582 -0.47751897121218889 0 -0.47642501453424091 -0.46426639560023519 0 -0.47556137958802641 -0.4863134336798039 0 -0.45112275917605582 -0.47751897121218889 0 -0.45112275917605582 -0.47751897121218889 0 -0.42668413876408529 -0.46872450874457411 0 -0.44993955490824161 -0.45591906818088718 0 -0.44530484513786373 -0.43634110900104739 0 -0.42814680334366051 -0.4507704629762338 0 -0.45112275917605582 -0.47751897121218889 0 -0.44993955490824161 -0.45591906818088718 0 -0.42668413876408529 -0.46872450874457411 0 -0.45112275917605582 -0.47751897121218889 0 -0.44993955490824161 -0.45591906818088718 0 -0.47642501453424091 -0.46426639560023519 0 -0.44993955490824161 -0.45591906818088718 0 -0.47265242256893941 -0.43851018614216059 0 -0.44530484513786373 -0.43634110900104739 0 -0.44993955490824161 -0.45591906818088718 0 -0.47265242256893941 -0.43851018614216059 0 -0.47642501453424091 -0.46426639560023519 0 -0.47265242256893941 -0.43851018614216059 0 -0.47642501453424091 -0.46426639560023519 0 -0.50000000000001488 -0.440679263283275 0 -0.47642501453424091 -0.46426639560023519 0 -0.5 -0.4678935797153464 0 -0.50000000000001488 -0.440679263283275 0 -0.47265242256893941 -0.43851018614216059 0 -0.50000000000001488 -0.440679263283275 0 -0.47265242256893941 -0.43851018614216059 0 -0.50000000000001488 -0.440679263283275 0 -0.48181425948517698 -0.42045974715113688 0 -0.50000000000001488 -0.440679263283275 0 -0.5 -0.41156950275764981 0 -0.48181425948517698 -0.42045974715113688 0 -0.5 -0.41156950275764981 0 -0.48181425948517698 -0.42045974715113688 0 -0.4845316273001109 -0.39572849247115149 0 -0.48181425948517698 -0.42045974715113688 0 -0.4845316273001109 -0.39572849247115149 0 -0.46832053264262152 -0.40285976570587362 0 -0.47265242256893941 -0.43851018614216059 0 -0.48181425948517698 -0.42045974715113688 0 -0.45494047923195308 -0.41731935769620471 0 -0.5 -0.3824597422320245 0 -0.4845316273001109 -0.39572849247115149 0 -0.47893177514547453 -0.37576308150860971 0 -0.5 -0.41156950275764981 0 -0.5 -0.3824597422320245 0 -0.4845316273001109 -0.39572849247115149 0 -0.4845316273001109 -0.39572849247115149 0 -0.46767420915850161 -0.38937209213934038 0 -0.46832053264262152 -0.40285976570587362 0 -0.4845316273001109 -0.39572849247115149 0 -0.47893177514547453 -0.37576308150860971 0 -0.46767420915850161 -0.38937209213934038 0 -0.47893177514547453 -0.37576308150860971 0 -0.46767420915850161 -0.38937209213934038 0 -0.45227661575813988 -0.37789141437863999 0 -0.46767420915850161 -0.38937209213934038 0 -0.4553314831780042 -0.39730905521101673 0 -0.45227661575813988 -0.37789141437863999 0 -0.4553314831780042 -0.39730905521101673 0 -0.46832053264262152 -0.40285976570587362 0 -0.45494047923195308 -0.41731935769620471 0 -0.46767420915850161 -0.38937209213934038 0 -0.4553314831780042 -0.39730905521101673 0 -0.46832053264262152 -0.40285976570587362 0 -0.4553314831780042 -0.39730905521101673 0 -0.45494047923195308 -0.41731935769620471 0 -0.43748468617581038 -0.40293469790464193 0 -0.4553314831780042 -0.39730905521101673 0 -0.45227661575813988 -0.37789141437863999 0 -0.43748468617581038 -0.40293469790464193 0 -0.45227661575813988 -0.37789141437863999 0 -0.4343645645853691 -0.38569248880880852 0 -0.43723425011550399 -0.3740873654345962 0 -0.45227661575813988 -0.37789141437863999 0 -0.43748468617581038 -0.40293469790464193 0 -0.45227661575813988 -0.37789141437863999 0 -0.4343645645853691 -0.38569248880880852 0 -0.43748468617581038 -0.40293469790464193 0 -0.47265242256893941 -0.43851018614216059 0 -0.45494047923195308 -0.41731935769620471 0 -0.44530484513786373 -0.43634110900104739 0 -0.47265242256893941 -0.43851018614216059 0 -0.44530484513786373 -0.43634110900104739 0 -0.48181425948517698 -0.42045974715113688 0 -0.46832053264262152 -0.40285976570587362 0 -0.45494047923195308 -0.41731935769620471 0 -0.45494047923195308 -0.41731935769620471 0 -0.43481357268735787 -0.42140601871702288 0 -0.43748468617581038 -0.40293469790464193 0 -0.45494047923195308 -0.41731935769620471 0 -0.44530484513786373 -0.43634110900104739 0 -0.43481357268735787 -0.42140601871702288 0 -0.44530484513786373 -0.43634110900104739 0 -0.41795726770678809 -0.43417203185993408 0 -0.43481357268735787 -0.42140601871702288 0 -0.41838058518437432 -0.4162628971232864 0 -0.41795726770678809 -0.43417203185993408 0 -0.44530484513786373 -0.43634110900104739 0 -0.43481357268735787 -0.42140601871702288 0 -0.41795726770678809 -0.43417203185993408 0 -0.43481357268735787 -0.42140601871702288 0 -0.41838058518437432 -0.4162628971232864 0 -0.43748468617581038 -0.40293469790464193 0 -0.41838058518437432 -0.4162628971232864 0 -0.40387362494084011 -0.42303636282091339 0 -0.39828894518590541 -0.40803159407563722 0 -0.41838058518437432 -0.4162628971232864 0 -0.41795726770678809 -0.43417203185993408 0 -0.40387362494084011 -0.42303636282091339 0 -0.4343645645853691 -0.38569248880880852 0 -0.42331126737778718 -0.39508519651506918 0 -0.42151600349960411 -0.37846376981109492 0 -0.4343645645853691 -0.38569248880880852 0 -0.42151600349960411 -0.37846376981109492 0 -0.43723425011550399 -0.3740873654345962 0 -0.41838058518437432 -0.4162628971232864 0 -0.43748468617581038 -0.40293469790464193 0 -0.42331126737778718 -0.39508519651506918 0 -0.4343645645853691 -0.38569248880880852 0 -0.43748468617581038 -0.40293469790464193 0 -0.42331126737778718 -0.39508519651506918 0 -0.41838058518437432 -0.4162628971232864 0 -0.4077511286599933 -0.38848944906560812 0 -0.41838058518437432 -0.4162628971232864 0 -0.42331126737778718 -0.39508519651506918 0 -0.4077511286599933 -0.38848944906560812 0 -0.41838058518437432 -0.4162628971232864 0 -0.4077511286599933 -0.38848944906560812 0 -0.39828894518590541 -0.40803159407563722 0 -0.42331126737778718 -0.39508519651506918 0 -0.4077511286599933 -0.38848944906560812 0 -0.42151600349960411 -0.37846376981109492 0 -0.4077511286599933 -0.38848944906560812 0 -0.42151600349960411 -0.37846376981109492 0 -0.40911244233707361 -0.3733511811947916 0 -0.4077511286599933 -0.38848944906560812 0 -0.39268944785074639 -0.39496098019696357 0 -0.38727979656423278 -0.38134629288484628 0 -0.4077511286599933 -0.38848944906560812 0 -0.38727979656423278 -0.38134629288484628 0 -0.39712167213561189 -0.36071600100792989 0 -0.4077511286599933 -0.38848944906560812 0 -0.39268944785074639 -0.39496098019696357 0 -0.39828894518590541 -0.40803159407563722 0 -0.39268944785074639 -0.39496098019696357 0 -0.37743792099285423 -0.40197658476176312 0 -0.38727979656423278 -0.38134629288484628 0 -0.37743792099285423 -0.40197658476176312 0 -0.38727979656423278 -0.38134629288484628 0 -0.37743792099285423 -0.40197658476176312 0 -0.38727979656423278 -0.38134629288484628 0 -0.36120022784666578 -0.38959513091372089 0 -0.39268944785074639 -0.39496098019696357 0 -0.37743792099285423 -0.40197658476176312 0 -0.39828894518590541 -0.40803159407563722 0 -0.40387362494084011 -0.42303636282091339 0 -0.38315958056171501 -0.41736888227639313 0 -0.39060969027571252 -0.43200295471882089 0 -0.41795726770678809 -0.43417203185993408 0 -0.39060969027571252 -0.43200295471882089 0 -0.41795726770678809 -0.43417203185993408 0 -0.40387362494084011 -0.42303636282091339 0 -0.39060969027571252 -0.43200295471882089 0 -0.40387362494084011 -0.42303636282091339 0 -0.39828894518590541 -0.40803159407563722 0 -0.38315958056171501 -0.41736888227639313 0 -0.37743792099285423 -0.40197658476176312 0 -0.39828894518590541 -0.40803159407563722 0 -0.38315958056171501 -0.41736888227639313 0 -0.37743792099285423 -0.40197658476176312 0 -0.38315958056171501 -0.41736888227639313 0 -0.36759604542147561 -0.4226068766386798 0 -0.39060969027571252 -0.43200295471882089 0 -0.36326211284463678 -0.42983387757770769 0 -0.38315958056171501 -0.41736888227639313 0 -0.39060969027571252 -0.43200295471882089 0 -0.36759604542147561 -0.4226068766386798 0 -0.39060969027571252 -0.43200295471882089 0 -0.37780689794014433 -0.45113558380934432 0 -0.40224551835211481 -0.45993004627695921 0 -0.39060969027571252 -0.43200295471882089 0 -0.37780689794014433 -0.45113558380934432 0 -0.36326211284463678 -0.42983387757770769 0 -0.41795726770678809 -0.43417203185993408 0 -0.39060969027571252 -0.43200295471882089 0 -0.40224551835211481 -0.45993004627695921 0 -0.37780689794014433 -0.45113558380934432 0 -0.40224551835211481 -0.45993004627695921 0 -0.37780689794014433 -0.45113558380934432 0 -0.38511263920424837 -0.46918695782684849 0 -0.36944275723482128 -0.46524893742037809 0 -0.37780689794014433 -0.45113558380934432 0 -0.40224551835211481 -0.45993004627695921 0 -0.38511263920424837 -0.46918695782684849 0 -0.38511263920424837 -0.46918695782684849 0 -0.37384741698460489 -0.48507156445338823 0 -0.36944275723482128 -0.46524893742037809 0 -0.38511263920424837 -0.4691869
[...]
<PointData Scalars="" Vectors="displacement," Tensors="">
<DataArray type="Float64" Name="displacement" NumberOfComponents="3" format="ascii">
-6.1375054081639873e-07 -0.034997327940284081 0 9.8090701905094983e-07 -0.034661777877670122 0 -2.8141403704448697e-06 -0.0349726488439095 0 1.1497388869064601e-06 -0.034655349612033995 0 -0.00015001864112015588 -0.033237984546668674 0 4.4296115256915873e-06 -0.032745813841614478 0 5.8697771143682206e-09 -0.034657202799364899 0 -3.6426742038366455e-05 -0.033871020919827667 0 -6.1375054081639873e-07 -0.034997327940284081 0 -2.8141403704448697e-06 -0.0349726488439095 0 1.1441984953187308e-07 -0.035000829185365005 0 1.1497388869064601e-06 -0.034655349612033995 0 -0.00015001864112015588 -0.033237984546668674 0 -1.2256395117314045e-06 -0.032751794062149051 0 -0.00015001864112015588 -0.033237984546668674 0 -0.00025551806326540489 -0.03263247557018796 0 -1.2256395117314045e-06 -0.032751794062149051 0 -0.00015001864112015588 -0.033237984546668674 0 4.4296115256915873e-06 -0.032745813841614478 0 -0.00025551806326540489 -0.03263247557018796 0 1.1441984953187308e-07 -0.035000829185365005 0 -1.7448899632531851e-05 -0.034990657977184855 0 -4.2210206506574499e-05 -0.034982952517486024 0 -2.8141403704448697e-06 -0.0349726488439095 0 1.1441984953187308e-07 -0.035000829185365005 0 -1.7448899632531851e-05 -0.034990657977184855 0 4.4296115256915873e-06 -0.032745813841614478 0 -0.00027068609249203282 -0.032798549980276703 0 -0.00025551806326540489 -0.03263247557018796 0 -3.6426742038366455e-05 -0.033871020919827667 0 -0.00012915425693322503 -0.033909923228670237 0 -0.00012915425693322503 -0.033909923228670237 0 -0.00017482658260100853 -0.034118402644682924 0 -5.748335375378903e-05 -0.032854230589887526 0 0.0003005220445767943 -0.032903164499199208 0 1.3359948820464768e-05 -0.033226578581786764 0 -0.00027068609249203282 -0.032798549980276703 0 -5.748335375378903e-05 -0.032854230589887526 0 -0.00030593575268634404 -0.033245053281139109 0 -0.00027068609249203282 -0.032798549980276703 0 -5.748335375378903e-05 -0.032854230589887526 0 -0.00025551806326540489 -0.03263247557018796 0 -5.748335375378903e-05 -0.032854230589887526 0 0.00033371026510392186 -0.03246468711703774 0 0.0003005220445767943 -0.032903164499199208 0 -5.748335375378903e-05 -0.032854230589887526 0 0.00033371026510392186 -0.03246468711703774 0 -0.00025551806326540489 -0.03263247557018796 0 0.00033371026510392186 -0.03246468711703774 0 -0.00025551806326540489 -0.03263247557018796 0 1.1690206384452315e-06 -0.030851236120066183 0 -0.00025551806326540489 -0.03263247557018796 0 -1.2256395117314045e-06 -0.032751794062149051 0 1.1690206384452315e-06 -0.030851236120066183 0 0.00074688311250498184 -0.030090129547283406 0 3.1970723583742571e-07 -0.0308471755783923 0 0.0012821476247491886 -0.027823677582045077 0 3.1909364204406179e-06 -0.030843786823558931 0 0.00010940125911141291 -0.028337755641370296 0 3.1909364204406179e-06 -0.030843786823558931 0 -9.428000829176435e-07 -0.028810213457109986 0 0.00010940125911141291 -0.028337755641370296 0 -9.428000829176435e-07 -0.028810213457109986 0 0.00010940125911141291 -0.028337755641370296 0 -0.00030080033176463285 -0.027482452960786198 0 0.00010940125911141291 -0.028337755641370296 0 -0.00030080033176463285 -0.027482452960786198 0 -0.00026721636337199653 -0.027197176138067811 0 0.0012821476247491886 -0.027823677582045077 0 0.00010940125911141291 -0.028337755641370296 0 0.00033981365051851168 -0.026560152040872337 0 -1.1800581532530865e-06 -0.026771632071388784 0 -0.00030080033176463285 -0.027482452960786198 0 -0.00036744435946544729 -0.026740855393819506 0 -9.428000829176435e-07 -0.028810213457109986 0 -1.1800581532530865e-06 -0.026771632071388784 0 -0.00030080033176463285 -0.027482452960786198 0 -0.00030080033176463285 -0.027482452960786198 0 -0.00050541847678855774 -0.026941026567329315 0 -0.00026721636337199653 -0.027197176138067811 0 -0.00030080033176463285 -0.027482452960786198 0 -0.00036744435946544729 -0.026740855393819506 0 -0.00050541847678855774 -0.026941026567329315 0 -0.00036744435946544729 -0.026740855393819506 0 -0.00050541847678855774 -0.026941026567329315 0 -0.00070744973691076491 -0.026776649291890588 0 -0.00050541847678855774 -0.026941026567329315 0 -0.00042310751560727805 -0.026566749636096954 0 -0.00070744973691076491 -0.026776649291890588 0 -0.00042310751560727805 -0.026566749636096954 0 -0.00026721636337199653 -0.027197176138067811 0 0.00033981365051851168 -0.026560152040872337 0 -0.00050541847678855774 -0.026941026567329315 0 -0.00042310751560727805 -0.026566749636096954 0 -0.00026721636337199653 -0.027197176138067811 0 -0.00042310751560727805 -0.026566749636096954 0 0.00033981365051851168 -0.026560152040872337 0 -0.00033983379999142732 -0.025345496300823639 0 -0.00042310751560727805 -0.026566749636096954 0 -0.00070744973691076491 -0.026776649291890588 0 -0.00033983379999142732 -0.025345496300823639 0 -0.001902198262309312 -0.025740825408555518 0 -0.0014129037394539836 -0.02479492669566935 0 -0.0021081076094240201 -0.024888321680864491 0 -0.001578564412332109 -0.026916912279701128 0 -0.00013012573920546328 -0.02513724741965714 0 -0.001902198262309312 -0.025740825408555518 0 -0.0014129037394539836 -0.02479492669566935 0 -0.00033983379999142732 -0.025345496300823639 0 0.0012821476247491886 -0.027823677582045077 0 0.00033981365051851168 -0.026560152040872337 0 0.001539107085907779 -0.025937537915105599 0 0.00074688311250498184 -0.030090129547283406 0 0.00091522471807687473 -0.029415998571766199 0 0.00010940125911141291 -0.028337755641370296 0 -0.00026721636337199653 -0.027197176138067811 0 0.00033981365051851168 -0.026560152040872337 0 0.00033981365051851168 -0.026560152040872337 0 0.00069292516515987498 -0.025191061184044974 0 -0.00033983379999142732 -0.025345496300823639 0 0.00033981365051851168 -0.026560152040872337 0 0.001539107085907779 -0.025937537915105599 0 0.00069292516515987498 -0.025191061184044974 0 0.00091522471807687473 -0.029415998571766199 0 0.00087718239876418661 -0.028787242619408793 0 0.00069292516515987498 -0.025191061184044974 0 0.0004732964216425522 -0.024055132655648324 0 0.0014249763488696557 -0.024120091094100887 0 0.001539107085907779 -0.025937537915105599 0 0.00069292516515987498 -0.025191061184044974 0 0.0014249763488696557 -0.024120091094100887 0 0.00069292516515987498 -0.025191061184044974 0 0.0004732964216425522 -0.024055132655648324 0 -0.00033983379999142732 -0.025345496300823639 0 0.0004732964216425522 -0.024055132655648324 0 0.00078498723425671766 -0.023413029393935605 0 0.00011339263436746771 -0.02315374452614628 0 0.0004732964216425522 -0.024055132655648324 0 0.0014249763488696557 -0.024120091094100887 0 0.00078498723425671766 -0.023413029393935605 0 -0.0014129037394539836 -0.02479492669566935 0 -0.00088035168370018037 -0.024099072650461042 0 -0.0017972225972518376 -0.02366252944726966 0 -0.0014129037394539836 -0.02479492669566935 0 -0.0017972225972518376 -0.02366252944726966 0 -0.0021081076094240201 -0.024888321680864491 0 0.0004732964216425522 -0.024055132655648324 0 -0.00033983379999142732 -0.025345496300823639 0 -0.00088035168370018037 -0.024099072650461042 0 -0.0014129037394539836 -0.02479492669566935 0 -0.00033983379999142732 -0.025345496300823639 0 -0.00088035168370018037 -0.024099072650461042 0 0.00051050745643797107 -0.023952068977668921 0 -0.0013303808816318475 -0.023317440664732146 0 0.0004732964216425522 -0.024055132655648324 0 -0.00088035168370018037 -0.024099072650461042 0 -0.0013778952958595555 -0.022805807576240244 0 0.0004732964216425522 -0.024055132655648324 0 -0.00070645765227385609 -0.023533020670198235 0 0.00011339263436746771 -0.02315374452614628 0 -0.00088035168370018037 -0.024099072650461042 0 -0.0013778952958595555 -0.022805807576240244 0 -0.0017972225972518376 -0.02366252944726966 0 -0.0013778952958595555 -0.022805807576240244 0 -0.0017972225972518376 -0.02366252944726966 0 -0.0019990778900515378 -0.02272031399405379 0 -0.00070645765227385609 -0.023533020670198235 0 -0.0004310905741456637 -0.022914272883236126 0 -0.00097986113869834518 -0.022694510582173415 0 -0.00070645765227385609 -0.023533020670198235 0 -0.00097986113869834518 -0.022694510582173415 0 -0.0017846900033522252 -0.02307595414180966 0 -0.00070645765227385609 -0.023533020670198235 0 -0.0004310905741456637 -0.022914272883236126 0 0.00011339263436746771 -0.02315374452614628 0 -0.0004310905741456637 -0.022914272883236126 0 -0.00014247484650056153 -0.02227318882866643 0 -0.00097986113869834518 -0.022694510582173415 0 0.00024391023798633633 -0.021878807738256748 0 -4.5750016143240262e-05 -0.021919505592390778 0 0.00059172623428231587 -0.021489704531102265 0 0.00078194429105079655 -0.021143403681306301 0 0.00070098052347608922 -0.021619498335263145 0 -0.0004310905741456637 -0.022914272883236126 0 -0.00014247484650056153 -0.02227318882866643 0 0.00011339263436746771 -0.02315374452614628 0 0.00078498723425671766 -0.023413029393935605 0 0.00048334679574060855 -0.022501951650274278 0 0.0011405928919232073 -0.022817396322312892 0 0.00087718239876418661 -0.028787242619408793 0 0.00072926463290213562 -0.02849001424732505 0 0.0014249763488696557 -0.024120091094100887 0 0.00078498723425671766 -0.023413029393935605 0 0.0011405928919232073 -0.022817396322312892 0 0.00078498723425671766 -0.023413029393935605 0 0.00011339263436746771 -0.02315374452614628 0 0.00048334679574060855 -0.022501951650274278 0 -0.00014247484650056153 -0.02227318882866643 0 0.00011339263436746771 -0.02315374452614628 0 0.00048334679574060855 -0.022501951650274278 0 -0.00014247484650056153 -0.02227318882866643 0 0.00048334679574060855 -0.022501951650274278 0 0.00064301161364161449 -0.02184841174148246 0 0.00072926463290213562 -0.02849001424732505 0 0.00047339030445328514 -0.028205970332897748 0 0.00048334679574060855 -0.022501951650274278 0 0.0011405928919232073 -0.022817396322312892 0 0.00064301161364161449 -0.02184841174148246 0 0.00033822369133607152 -0.034161966730022093 0 -9.1968831780820149e-05 -0.034554913834735537 0 -0.00025907683059122683 -0.033835396565363357 0 0.00033822369133607152 -0.034161966730022093 0 -9.1968831780820149e-05 -0.034554913834735537 0 0.00013403555846600764 -0.034635253163034431 0 0.00034724553210190392 -0.033428222552657628 0 0.00033822369133607152 -0.034161966730022093 0 -0.00025907683059122683 -0.033835396565363357 0 -9.9523973395551421e-05 -0.034557349956040949 0 -0.00017575392019605475 -0.034366270071018466 0 -9.1968831780820149e-05 -0.034554913834735537 0 -6.9614811873386324e-05 -0.03475095372574203 0 -8.9219504106949693e-05 -0.03466024689417628 0 -9.1968831780820149e-05 -0.034554913834735537 0 -0.00012360240394331375 -0.034885787647262835 0 -6.9614811873386324e-05 -0.03475095372574203 0 -6.9614811873386324e-05 -0.03475095372574203 0 -2.0052574411733887e-05 -0.034721877965817313 0 -8.9219504106949693e-05 -0.03466024689417628 0 -6.9614811873386324e-05 -0.03475095372574203 0 -2.6382108533172307e-05 -0.034867930641473477 0 -2.0052574411733887e-05 -0.034721877965817313 0 -3.0082699974050815e-09 -0.035000000832055428 0 8.0086899462385141e-07 -0.034998163825414347 0 6.244976085600069e-09 -0.034999994061378256 0 -2.6382108533172307e-05 -0.034867930641473477 0 6.5703869257257358e-08 -0.034999069124493118 0 -2.0052574411733887e-05 -0.034721877965817313 0 -7.1350550521200937e-09 -0.034999931828521076 0 -1.8825218340397899e-05 -0.034863130882751087 0 -2.6382108533172307e-05 -0.034867930641473477 0 6.5703869257257358e-08 -0.034999069124493118 0 -1.9680279539995045e-05 -0.034960966286748101 0 -6.9614811873386324e-05 -0.03475095372574203 0 -2.6382108533172307e-05 -0.034867930641473477 0 -1.9680279539995045e-05 -0.034960966286748101 0 -0.00012360240394331375 -0.034885787647262835 0 -6.9614811873386324e-05 -0.03475095372574203 0 -1.9680279539995045e-05 -0.034960966286748101 0 -0.00012360240394331375 -0.034885787647262835 0 -1.9680279539995045e-05 -0.034960966286748101 0 -4.2210206506574499e-05 -0.034982952517486024 0 1.1441984953187308e-07 -0.035000829185365005 0 -1.9680279539995045e-05 -0.034960966286748101 0 -4.2210206506574499e-05 -0.034982952517486024 0 1.1441984953187308e-07 -0.035000829185365005 0 6.5703869257257358e-08 -0.034999069124493118 0 -1.9680279539995045e-05 -0.034960966286748101 0 -5.748335375378903e-05 -0.032854230589887526 0 -0.00030593575268634404 -0.033245053281139109 0 1.3359948820464768e-05 -0.033226578581786764 0 0.0003005220445767943 -0.032903164499199208 0 0.00034724553210190392 -0.033428222552657628 0 1.3359948820464768e-05 -0.033226578581786764 0 0.00034724553210190392 -0.033428222552657628 0 -0.00025907683059122683 -0.033835396565363357 0 1.3359948820464768e-05 -0.033226578581786764 0 -0.00025907683059122683 -0.033835396565363357 0 -0.00030593575268634404 -0.033245053281139109 0 1.3359948820464768e-05 -0.033226578581786764 0 -0.00017575392019605475 -0.034366270071018466 0 -0.00017482658260100853 -0.034118402644682924 0 0.0023758635540478174 -0.019318731943686503 0 0.0021135163452152962 -0.019488259100193941 0 0.0025543672853435839 -0.0195899908770907 0 0.0023758635540478174 -0.019318731943686503 0 0.0018372985996824073 -0.019102921143068816 0 0.0021135163452152962 -0.019488259100193941 0 0.0011928516154196733 -0.018549155054705287 0 0.0010419572923916749 -0.018315163231670234 0 0.0018372985996824073 -0.019102921143068816 0 0.0017503588547929368 -0.019656234598297049 0 0.0021135163452152962 -0.019488259100193941 0 -0.00021672818606974307 -0.017164674162372589 0 -9.6117114534057356e-05 -0.017582430879364778 0 0.00040745381958240152 -0.017615262285616454 0 -9.6117114534057356e-05 -0.017582430879364778 0 0.000386223310202935 -0.017993288023809669 0 0.00040745381958240152 -0.017615262285616454 0 -0.00021672818606974307 -0.017164674162372589 0 -9.6117114534057356e-05 -0.017582430879364778 0 -0.00025067279688119635 -0.016985465510199832 0 -9.6117114534057356e-05 -0.017582430879364778 0 5.2207822494744523e-05 -0.0183402635492191 0 -0.00020249351757482326 -0.017270346109111091 0 -3.9322012686807256e-07 -0.018105215032517642 0 5.2207822494744523e-05 -0.0183402635492191 0 -0.00020249351757482326 -0.017270346109111091 0 -3.9322012686807256e-07 -0.018105215032517642 0 5.2207822494744523e-05 -0.0183402635492191 0 2.7625492594291049e-07 -0.02012903478708683 0 -9.6117114534057356e-05 -0.017582430879364778 0 5.2207822494744523e-05 -0.0183402635492191 0 0.000386223310202935 -0.017993288023809669 0 5.2207822494744523e-05 -0.0183402635492191 0 0.00069632404298468201 -0.018435577996791703 0 0.000386223310202935 -0.017993288023809669 0 0.00069632404298468201 -0.018435577996791703 0 0.00072081234324234463 -0.018227596063936188 0 0.000386223310202935 -0.017993288023809669 0 -6.0831728150748011e-05 -0.018500086047656069 0 0.00029779232096804041 -0.019354181425596903 0 5.2207822494744523e-05 -0.0183402635492191 0 2.7625492594291049e-07 -0.02012903478708683 0 6.0911085093246238e-05 -0.020322754852996575 0 0.00029779232096804041 -0.019354181425596903 0 0.00016657229538331387 -0.020033557262638807 0 0.00069632404298468201 -0.018435577996791703 0 0.00073660371628567352 -0.01836131704507668 0 0.00070067451691204581 -0.018299462893483075 0 2.7625492594291049e-07 -0.02012903478708683 0 6.0911085093246238e-05 -0.020322754852996575 0 4.5777955665991543e-08 -0.022153615223731497 0 6.0911085093246238e-05 -0.020322754852996575 0 4.5777955665991543e-08 -0.022153615223731497 0 2.8423286048963124e-05 -0.022242212155876552 0 0.00069632404298468201 -0.018435577996791703 0 0.00073660371628567352 -0.01836131704507668 0 0.00072081234324234463 -0.018227596063936188 0 0.00073660371628567352 -0.01836131704507668 0 0.00076834833445946205 -0.018340117147453153 0 0.00073100011456235568 -0.018346465656337765 0 0.00073660371628567352 -0.01836131704507668 0 0.00076834833445946205 -0.018340117147453153 0 0.00072081234324234463 -0.018227596063936188 0 0.0010419572923916749 -0.018315163231670234 0 0.00084350352867829407 -0.018497219910531437 0 0.00076834833445946205 -0.018340117147453153 0 0.00072081234324234463 -0.018227596063936188 0 0.00081500813491056155 -0.018386043530460461 0 0.00072081234324234463 -0.018227596063936188 0 0.00040745381958240152 -0.017615262285616454 0 0.00086465360223761281 -0.018524709725747782 0 0.00072081234324234463 -0.018227596063936188 0 0.00086465360223761281 -0.018524709725747782 0 0.00081500813491056155 -0.018386043530460461 0 0.00072081234324234463 -0.018227596063936188 0 0.000386223310202935 -0.017993288023809669 0 0.00040745381958240152 -0.017615262285616454 0 0.0018372985996824073 -0.019102921143068816 0 0.0015160942481892202 -0.019438634888834894 0 0.0011437198504912313 -0.0192087485309075 0 0.0018372985996824073 -0.019102921143068816 0 0.0015160942481892202 -0.019438634888834894 0 0.0017503588547929368 -0.019656234598297049 0 0.0018372985996824073 -0.019102921143068816 0 0.0011437198504912313 -0.0192087485309075 0 0.00086465360223761281 -0.018524709725747782 0 0.0011437198504912313 -0.0192087485309075 0 0.00067597664257099338 -0.019027547002358512 0 0.00086465360223761281 -0.018524709725747782 0 0.00067597664257099338 -0.019027547002358512 0 -0.0001526296162725523 -0.01885484512725984 0 0.00076059483202670401 -0.019499510410478524 0 0.00067597664257099338 -0.019027547002358512 0 -0.0001526296162725523 -0.01885484512725984 0 0.00086465360223761281 -0.018524709725747782 0 -0.0001526296162725523 -0.01885484512725984 0 0.00033856427757071638 -0.019956706452001628 0 0.00076059483202670401 -0.019499510410478524 0 0.0011437198504912313 -0.0192087485309075 0 0.00067597664257099338 -0.019027547002358512 0 0.00076059483202670401 -0.019499510410478524 0 0.00052139811518494249 -0.018528356900134702 0 8.8432714504868285e-05 -0.018501656271299276 0 0.00025157263243813104 -0.018713978938745247 0 0.00045492279886004183 -0.018935744935871066 0 0.00052139811518494249 -0.018528356900134702 0 0.00025157263243813104 -0.018713978938745247 0 0.0003780136816571151 -0.018486423143225399 0 0.00064946825031437605 -0.018573825720772104 0 0.00052139811518494249 -0.018528356900134702 0 0.00081500813491056155 -0.018386043530460461 0 0.00071118426912435595 -0.018369685345662544 0 0.00045492279886004183 -0.018935744935871066 0 0.00052139811518494249 -0.018528356900134702 0 0.00081500813491056155 -0.018386043530460461 0 -0.0001526296162725523 -0.01885484512725984 0 0.00086465360223761281 -0.018524709725747782 0 0.00081500813491056155 -0.018386043530460461 0 0.00073660371628567352 -0.01836131704507668 0 0.00073100011456235568 -0.018346465656337765 0 0.00070067451691204581 -0.018299462893483075 0 0.00052139811518494249 -0.018528356900134702 0 0.00071118426912435595 -0.018369685345662544 0 0.00061597614810172702 -0.018348542296577279 0 0.00076834833445946205 -0.018340117147453153 0 0.00081500813491056155 -0.018386043530460461 0 0.00071118426912435595 -0.018369685345662544 0 0.00076834833445946205 -0.018340117147453153 0 0.00071118426912435595 -0.018369685345662544 0 0.00073100011456235568 -0.018346465656337765 0 0.00071118426912435595 -0.018369685345662544 0 0.00067717613177999288 -0.018336687820954319 0 0.00061597614810172702 -0.018348542296577279 0 0.00067717613177999288 -0.018336687820954319 0 0.00058921762351413589 -0.018318949600080132 0 0.00061597614810172702 -0.018348542296577279 0 0.00071118426912435595 -0.018369685345662544 0 0.00067717613177999288 -0.018336687820954319 0 0.00073100011456235568 -0.018346465656337765 0 4.5777955665991543e-08 -0.022153615223731497 0 2.8423286048963124e-05 -0.022242212155876552 0 2.5392149141850426e-07 -0.024177303931154154 0 0.00067717613177999288 -0.018336687820954319 0 0.00073100011456235568 -0.018346465656337765 0 0.00070067451691204581 -0.018299462893483075 0 0.00067717613177999288 -0.018336687820954319 0 0.00070067451691204581 -0.018299462893483075 0 0.00058921762351413589 -0.018318949600080132 0 2.8423286048963124e-05 -0.022242212155876552 0 1.2382781522635602e-05 -0.024127299841561308 0 2.5392149141850426e-07 -0.024177303931154154 0 0.00016657229538331387 -0.02003