<?xml version="1.0"?>
<VTKFile type="UnstructuredGrid" version="0.1" byte_order="LittleEndian">
<UnstructuredGrid>
<Piece NumberOfPoints="30896" NumberOfCells="10754">
<Points>
<DataArray type="Float64" NumberOfComponents="3" format="ascii">
-0.5 -0.5 0 -0.49999999999999728 -0.4951078961474179 0 -0.47556137958802641 -0.4863134336798039 0 -0.49999999999999728 -0.4951078961474179 0 -0.48888184660152939 -0.47928258675589552 0 -0.47556137958802641 -0.4863134336798039 0 -0.49999999999999728 -0.4951078961474179 0 -0.47556137958802641 -0.4863134336798039 0 -0.5 -0.5 0 -0.47556137958802641 -0.4863134336798039 0 -0.45469313645163489 -0.5 0 -0.49999999999999728 -0.4951078961474179 0 -0.48888184660152939 -0.47928258675589552 0 -0.5 -0.4678935797153464 0 -0.48888184660152939 -0.47928258675589552 0 -0.47642501453424091 -0.46426639560023519 0 -0.5 -0.4678935797153464 0 -0.48888184660152939 -0.47928258675589552 0 -0.47556137958802641 -0.4863134336798039 0 -0.47642501453424091 -0.46426639560023519 0 -0.45469313645163489 -0.5 0 -0.45112275917605582 -0.47751897121218889 0 -0.42668413876408529 -0.46872450874457411 0 -0.47556137958802641 -0.4863134336798039 0 -0.45469313645163489 -0.5 0 -0.45112275917605582 -0.47751897121218889 0 -0.47556137958802641 -0.4863134336798039 0 -0.45112275917605582 -0.47751897121218889 0 -0.47642501453424091 -0.46426639560023519 0 -0.47556137958802641 -0.4863134336798039 0 -0.45112275917605582 -0.47751897121218889 0 -0.45112275917605582 -0.47751897121218889 0 -0.42668413876408529 -0.46872450874457411 0 -0.44993955490824161 -0.45591906818088718 0 -0.44530484513786373 -0.43634110900104739 0 -0.42814680334366051 -0.4507704629762338 0 -0.45112275917605582 -0.47751897121218889 0 -0.44993955490824161 -0.45591906818088718 0 -0.42668413876408529 -0.46872450874457411 0 -0.45112275917605582 -0.47751897121218889 0 -0.44993955490824161 -0.45591906818088718 0 -0.47642501453424091 -0.46426639560023519 0 -0.44993955490824161 -0.45591906818088718 0 -0.47265242256893941 -0.43851018614216059 0 -0.44530484513786373 -0.43634110900104739 0 -0.44993955490824161 -0.45591906818088718 0 -0.47265242256893941 -0.43851018614216059 0 -0.47642501453424091 -0.46426639560023519 0 -0.47265242256893941 -0.43851018614216059 0 -0.47642501453424091 -0.46426639560023519 0 -0.50000000000001488 -0.440679263283275 0 -0.47642501453424091 -0.46426639560023519 0 -0.5 -0.4678935797153464 0 -0.50000000000001488 -0.440679263283275 0 -0.47265242256893941 -0.43851018614216059 0 -0.50000000000001488 -0.440679263283275 0 -0.47265242256893941 -0.43851018614216059 0 -0.50000000000001488 -0.440679263283275 0 -0.48181425948517698 -0.42045974715113688 0 -0.50000000000001488 -0.440679263283275 0 -0.5 -0.41156950275764981 0 -0.48181425948517698 -0.42045974715113688 0 -0.5 -0.41156950275764981 0 -0.48181425948517698 -0.42045974715113688 0 -0.4845316273001109 -0.39572849247115149 0 -0.48181425948517698 -0.42045974715113688 0 -0.4845316273001109 -0.39572849247115149 0 -0.46832053264262152 -0.40285976570587362 0 -0.47265242256893941 -0.43851018614216059 0 -0.48181425948517698 -0.42045974715113688 0 -0.45494047923195308 -0.41731935769620471 0 -0.5 -0.3824597422320245 0 -0.4845316273001109 -0.39572849247115149 0 -0.47893177514547453 -0.37576308150860971 0 -0.5 -0.41156950275764981 0 -0.5 -0.3824597422320245 0 -0.4845316273001109 -0.39572849247115149 0 -0.4845316273001109 -0.39572849247115149 0 -0.46767420915850161 -0.38937209213934038 0 -0.46832053264262152 -0.40285976570587362 0 -0.4845316273001109 -0.39572849247115149 0 -0.47893177514547453 -0.37576308150860971 0 -0.46767420915850161 -0.38937209213934038 0 -0.47893177514547453 -0.37576308150860971 0 -0.46767420915850161 -0.38937209213934038 0 -0.45227661575813988 -0.37789141437863999 0 -0.46767420915850161 -0.38937209213934038 0 -0.4553314831780042 -0.39730905521101673 0 -0.45227661575813988 -0.37789141437863999 0 -0.4553314831780042 -0.39730905521101673 0 -0.46832053264262152 -0.40285976570587362 0 -0.45494047923195308 -0.41731935769620471 0 -0.46767420915850161 -0.38937209213934038 0 -0.4553314831780042 -0.39730905521101673 0 -0.46832053264262152 -0.40285976570587362 0 -0.4553314831780042 -0.39730905521101673 0 -0.45494047923195308 -0.41731935769620471 0 -0.43748468617581038 -0.40293469790464193 0 -0.4553314831780042 -0.39730905521101673 0 -0.45227661575813988 -0.37789141437863999 0 -0.43748468617581038 -0.40293469790464193 0 -0.45227661575813988 -0.37789141437863999 0 -0.4343645645853691 -0.38569248880880852 0 -0.43723425011550399 -0.3740873654345962 0 -0.45227661575813988 -0.37789141437863999 0 -0.43748468617581038 -0.40293469790464193 0 -0.45227661575813988 -0.37789141437863999 0 -0.4343645645853691 -0.38569248880880852 0 -0.43748468617581038 -0.40293469790464193 0 -0.47265242256893941 -0.43851018614216059 0 -0.45494047923195308 -0.41731935769620471 0 -0.44530484513786373 -0.43634110900104739 0 -0.47265242256893941 -0.43851018614216059 0 -0.44530484513786373 -0.43634110900104739 0 -0.48181425948517698 -0.42045974715113688 0 -0.46832053264262152 -0.40285976570587362 0 -0.45494047923195308 -0.41731935769620471 0 -0.45494047923195308 -0.41731935769620471 0 -0.43481357268735787 -0.42140601871702288 0 -0.43748468617581038 -0.40293469790464193 0 -0.45494047923195308 -0.41731935769620471 0 -0.44530484513786373 -0.43634110900104739 0 -0.43481357268735787 -0.42140601871702288 0 -0.44530484513786373 -0.43634110900104739 0 -0.41795726770678809 -0.43417203185993408 0 -0.43481357268735787 -0.42140601871702288 0 -0.41838058518437432 -0.4162628971232864 0 -0.41795726770678809 -0.43417203185993408 0 -0.44530484513786373 -0.43634110900104739 0 -0.43481357268735787 -0.42140601871702288 0 -0.41795726770678809 -0.43417203185993408 0 -0.43481357268735787 -0.42140601871702288 0 -0.41838058518437432 -0.4162628971232864 0 -0.43748468617581038 -0.40293469790464193 0 -0.41838058518437432 -0.4162628971232864 0 -0.40387362494084011 -0.42303636282091339 0 -0.39828894518590541 -0.40803159407563722 0 -0.41838058518437432 -0.4162628971232864 0 -0.41795726770678809 -0.43417203185993408 0 -0.40387362494084011 -0.42303636282091339 0 -0.4343645645853691 -0.38569248880880852 0 -0.42331126737778718 -0.39508519651506918 0 -0.42151600349960411 -0.37846376981109492 0 -0.4343645645853691 -0.38569248880880852 0 -0.42151600349960411 -0.37846376981109492 0 -0.43723425011550399 -0.3740873654345962 0 -0.41838058518437432 -0.4162628971232864 0 -0.43748468617581038 -0.40293469790464193 0 -0.42331126737778718 -0.39508519651506918 0 -0.4343645645853691 -0.38569248880880852 0 -0.43748468617581038 -0.40293469790464193 0 -0.42331126737778718 -0.39508519651506918 0 -0.41838058518437432 -0.4162628971232864 0 -0.4077511286599933 -0.38848944906560812 0 -0.41838058518437432 -0.4162628971232864 0 -0.42331126737778718 -0.39508519651506918 0 -0.4077511286599933 -0.38848944906560812 0 -0.41838058518437432 -0.4162628971232864 0 -0.4077511286599933 -0.38848944906560812 0 -0.39828894518590541 -0.40803159407563722 0 -0.42331126737778718 -0.39508519651506918 0 -0.4077511286599933 -0.38848944906560812 0 -0.42151600349960411 -0.37846376981109492 0 -0.4077511286599933 -0.38848944906560812 0 -0.42151600349960411 -0.37846376981109492 0 -0.40911244233707361 -0.3733511811947916 0 -0.4077511286599933 -0.38848944906560812 0 -0.39268944785074639 -0.39496098019696357 0 -0.38727979656423278 -0.38134629288484628 0 -0.4077511286599933 -0.38848944906560812 0 -0.38727979656423278 -0.38134629288484628 0 -0.39712167213561189 -0.36071600100792989 0 -0.4077511286599933 -0.38848944906560812 0 -0.39268944785074639 -0.39496098019696357 0 -0.39828894518590541 -0.40803159407563722 0 -0.39268944785074639 -0.39496098019696357 0 -0.37743792099285423 -0.40197658476176312 0 -0.38727979656423278 -0.38134629288484628 0 -0.37743792099285423 -0.40197658476176312 0 -0.38727979656423278 -0.38134629288484628 0 -0.37743792099285423 -0.40197658476176312 0 -0.38727979656423278 -0.38134629288484628 0 -0.36120022784666578 -0.38959513091372089 0 -0.39268944785074639 -0.39496098019696357 0 -0.37743792099285423 -0.40197658476176312 0 -0.39828894518590541 -0.40803159407563722 0 -0.40387362494084011 -0.42303636282091339 0 -0.38315958056171501 -0.41736888227639313 0 -0.39060969027571252 -0.43200295471882089 0 -0.41795726770678809 -0.43417203185993408 0 -0.39060969027571252 -0.43200295471882089 0 -0.41795726770678809 -0.43417203185993408 0 -0.40387362494084011 -0.42303636282091339 0 -0.39060969027571252 -0.43200295471882089 0 -0.40387362494084011 -0.42303636282091339 0 -0.39828894518590541 -0.40803159407563722 0 -0.38315958056171501 -0.41736888227639313 0 -0.37743792099285423 -0.40197658476176312 0 -0.39828894518590541 -0.40803159407563722 0 -0.38315958056171501 -0.41736888227639313 0 -0.37743792099285423 -0.40197658476176312 0 -0.38315958056171501 -0.41736888227639313 0 -0.36759604542147561 -0.4226068766386798 0 -0.39060969027571252 -0.43200295471882089 0 -0.36326211284463678 -0.42983387757770769 0 -0.38315958056171501 -0.41736888227639313 0 -0.39060969027571252 -0.43200295471882089 0 -0.36759604542147561 -0.4226068766386798 0 -0.39060969027571252 -0.43200295471882089 0 -0.37780689794014433 -0.45113558380934432 0 -0.40224551835211481 -0.45993004627695921 0 -0.39060969027571252 -0.43200295471882089 0 -0.37780689794014433 -0.45113558380934432 0 -0.36326211284463678 -0.42983387757770769 0 -0.41795726770678809 -0.43417203185993408 0 -0.39060969027571252 -0.43200295471882089 0 -0.40224551835211481 -0.45993004627695921 0 -0.37780689794014433 -0.45113558380934432 0 -0.40224551835211481 -0.45993004627695921 0 -0.37780689794014433 -0.45113558380934432 0 -0.38511263920424837 -0.46918695782684849 0 -0.36944275723482128 -0.46524893742037809 0 -0.37780689794014433 -0.45113558380934432 0 -0.40224551835211481 -0.45993004627695921 0 -0.38511263920424837 -0.46918695782684849 0 -0.38511263920424837 -0.46918695782684849 0 -0.37384741698460489 -0.48507156445338823 0 -0.36944275723482128 -0.46524893742037809 0 -0.38511263920424837 -0.4691869
[...]
<PointData Scalars="" Vectors="displacement," Tensors="">
<DataArray type="Float64" Name="displacement" NumberOfComponents="3" format="ascii">
-0.03499663954416847 -0.035001074740633825 0 -0.034663149983811835 -0.034998101705374617 0 -0.035778717395073149 -0.033350169361811954 0 -0.034656750627589286 -0.035000098520663069 0 -0.033374783247502177 -0.035487291200237962 0 -0.033296104896678211 -0.035834456354418787 0 -0.034657577385408964 -0.034999676702538389 0 -0.034553303832581317 -0.034506118948219755 0 -0.03499663954416847 -0.035001074740633825 0 -0.035778717395073149 -0.033350169361811954 0 -0.035000625215558447 -0.031827870044546493 0 -0.034656750627589286 -0.035000098520663069 0 -0.033374783247502177 -0.035487291200237962 0 -0.03275194158730866 -0.034999438840092441 0 -0.033374783247502177 -0.035487291200237962 0 -0.032922208148753795 -0.035868511144795924 0 -0.03275194158730866 -0.034999438840092441 0 -0.033374783247502177 -0.035487291200237962 0 -0.033296104896678211 -0.035834456354418787 0 -0.032922208148753795 -0.035868511144795924 0 -0.035000625215558447 -0.031827870044546493 0 -0.036346638611640544 -0.031538761834533857 0 -0.036676602318185425 -0.029730638019054068 0 -0.035778717395073149 -0.033350169361811954 0 -0.035000625215558447 -0.031827870044546493 0 -0.036346638611640544 -0.031538761834533857 0 -0.033296104896678211 -0.035834456354418787 0 -0.032678627268782935 -0.03534769874234809 0 -0.032922208148753795 -0.035868511144795924 0 -0.034553303832581317 -0.034506118948219755 0 -0.034523304177507062 -0.033412763754444158 0 -0.034523304177507062 -0.033412763754444158 0 -0.03473003649484975 -0.031611866427074559 0 -0.033479871914369519 -0.03526198684087295 0 -0.034682416235970036 -0.034976394469903839 0 -0.03435330311123113 -0.033554241931768737 0 -0.032678627268782935 -0.03534769874234809 0 -0.033479871914369519 -0.03526198684087295 0 -0.032769562319535289 -0.033485383992651538 0 -0.032678627268782935 -0.03534769874234809 0 -0.033479871914369519 -0.03526198684087295 0 -0.032922208148753795 -0.035868511144795924 0 -0.033479871914369519 -0.03526198684087295 0 -0.032780265905393027 -0.035816978608501554 0 -0.034682416235970036 -0.034976394469903839 0 -0.033479871914369519 -0.03526198684087295 0 -0.032780265905393027 -0.035816978608501554 0 -0.032922208148753795 -0.035868511144795924 0 -0.032780265905393027 -0.035816978608501554 0 -0.032922208148753795 -0.035868511144795924 0 -0.03085126355073434 -0.035000502832453276 0 -0.032922208148753795 -0.035868511144795924 0 -0.03275194158730866 -0.034999438840092441 0 -0.03085126355073434 -0.035000502832453276 0 -0.030952767554922777 -0.035712309035414551 0 -0.030847633560020998 -0.034999624668497917 0 -0.029079520753190809 -0.036051959341564563 0 -0.030845263090211582 -0.034999915743578289 0 -0.028768093531117866 -0.03580891006746429 0 -0.030845263090211582 -0.034999915743578289 0 -0.028809349380806308 -0.034999711255179193 0 -0.028768093531117866 -0.03580891006746429 0 -0.028809349380806308 -0.034999711255179193 0 -0.028768093531117866 -0.03580891006746429 0 -0.027573164885866003 -0.035700103794614246 0 -0.028768093531117866 -0.03580891006746429 0 -0.027573164885866003 -0.035700103794614246 0 -0.027688740544138307 -0.036139197841067276 0 -0.029079520753190809 -0.036051959341564563 0 -0.028768093531117866 -0.03580891006746429 0 -0.027780573525867672 -0.036237979622655701 0 -0.026772055078331938 -0.034999736482710833 0 -0.027573164885866003 -0.035700103794614246 0 -0.026465328097426757 -0.035912885839284439 0 -0.028809349380806308 -0.034999711255179193 0 -0.026772055078331938 -0.034999736482710833 0 -0.027573164885866003 -0.035700103794614246 0 -0.027573164885866003 -0.035700103794614246 0 -0.02719338054750986 -0.036210733706982114 0 -0.027688740544138307 -0.036139197841067276 0 -0.027573164885866003 -0.035700103794614246 0 -0.026465328097426757 -0.035912885839284439 0 -0.02719338054750986 -0.036210733706982114 0 -0.026465328097426757 -0.035912885839284439 0 -0.02719338054750986 -0.036210733706982114 0 -0.026882676399457836 -0.036665525112876921 0 -0.02719338054750986 -0.036210733706982114 0 -0.02735680250985973 -0.036286631304055308 0 -0.026882676399457836 -0.036665525112876921 0 -0.02735680250985973 -0.036286631304055308 0 -0.027688740544138307 -0.036139197841067276 0 -0.027780573525867672 -0.036237979622655701 0 -0.02719338054750986 -0.036210733706982114 0 -0.02735680250985973 -0.036286631304055308 0 -0.027688740544138307 -0.036139197841067276 0 -0.02735680250985973 -0.036286631304055308 0 -0.027780573525867672 -0.036237979622655701 0 -0.027249298613953612 -0.035847707307209285 0 -0.02735680250985973 -0.036286631304055308 0 -0.026882676399457836 -0.036665525112876921 0 -0.027249298613953612 -0.035847707307209285 0 -0.026111210387899427 -0.034809437119340467 0 -0.026428055936107343 -0.035502898615230892 0 -0.025980991799112601 -0.035326558093888925 0 -0.02670478865271847 -0.035749913693280032 0 -0.027054598978441185 -0.035813274241482944 0 -0.026111210387899427 -0.034809437119340467 0 -0.026428055936107343 -0.035502898615230892 0 -0.027249298613953612 -0.035847707307209285 0 -0.029079520753190809 -0.036051959341564563 0 -0.027780573525867672 -0.036237979622655701 0 -0.027658189704849238 -0.036203583360137938 0 -0.030952767554922777 -0.035712309035414551 0 -0.031178814731557317 -0.035442154243661955 0 -0.028768093531117866 -0.03580891006746429 0 -0.027688740544138307 -0.036139197841067276 0 -0.027780573525867672 -0.036237979622655701 0 -0.027780573525867672 -0.036237979622655701 0 -0.027330828282107998 -0.035979153395079171 0 -0.027249298613953612 -0.035847707307209285 0 -0.027780573525867672 -0.036237979622655701 0 -0.027658189704849238 -0.036203583360137938 0 -0.027330828282107998 -0.035979153395079171 0 -0.031178814731557317 -0.035442154243661955 0 -0.031436345918917585 -0.033858960395165637 0 -0.027330828282107998 -0.035979153395079171 0 -0.02715248800050735 -0.03562985262729685 0 -0.026424114523791845 -0.035567447502389819 0 -0.027658189704849238 -0.036203583360137938 0 -0.027330828282107998 -0.035979153395079171 0 -0.026424114523791845 -0.035567447502389819 0 -0.027330828282107998 -0.035979153395079171 0 -0.02715248800050735 -0.03562985262729685 0 -0.027249298613953612 -0.035847707307209285 0 -0.02715248800050735 -0.03562985262729685 0 -0.0265057914760276 -0.034520867896334503 0 -0.027522353428062644 -0.034052924701741913 0 -0.02715248800050735 -0.03562985262729685 0 -0.026424114523791845 -0.035567447502389819 0 -0.0265057914760276 -0.034520867896334503 0 -0.026428055936107343 -0.035502898615230892 0 -0.026829729142706819 -0.035746803643374743 0 -0.025924519571181408 -0.035474597941972531 0 -0.026428055936107343 -0.035502898615230892 0 -0.025924519571181408 -0.035474597941972531 0 -0.025980991799112601 -0.035326558093888925 0 -0.02715248800050735 -0.03562985262729685 0 -0.027249298613953612 -0.035847707307209285 0 -0.026829729142706819 -0.035746803643374743 0 -0.026428055936107343 -0.035502898615230892 0 -0.027249298613953612 -0.035847707307209285 0 -0.026829729142706819 -0.035746803643374743 0 -0.026907299044170226 -0.035591835944093028 0 -0.028355157822467048 -0.03568989194660406 0 -0.02715248800050735 -0.03562985262729685 0 -0.026829729142706819 -0.035746803643374743 0 -0.026596201678801383 -0.036215374743460232 0 -0.02715248800050735 -0.03562985262729685 0 -0.028925370423065422 -0.034649462021421509 0 -0.027522353428062644 -0.034052924701741913 0 -0.026829729142706819 -0.035746803643374743 0 -0.026596201678801383 -0.036215374743460232 0 -0.025924519571181408 -0.035474597941972531 0 -0.026596201678801383 -0.036215374743460232 0 -0.025924519571181408 -0.035474597941972531 0 -0.025288394846109209 -0.036083266738051289 0 -0.028925370423065422 -0.034649462021421509 0 -0.028474104046226949 -0.033559890997593489 0 -0.029411836499343969 -0.033194186366301115 0 -0.028925370423065422 -0.034649462021421509 0 -0.029411836499343969 -0.033194186366301115 0 -0.03069112014472801 -0.033856406067483948 0 -0.028925370423065422 -0.034649462021421509 0 -0.028474104046226949 -0.033559890997593489 0 -0.027522353428062644 -0.034052924701741913 0 -0.028474104046226949 -0.033559890997593489 0 -0.027955964200664447 -0.032232026496625758 0 -0.029411836499343969 -0.033194186366301115 0 -0.026070380251301338 -0.031350052229419896 0 -0.026968006465513655 -0.031673112345078122 0 -0.024410633517564534 -0.030469518529555411 0 -0.023760361005843972 -0.030246826825983342 0 -0.024052849132014699 -0.030947818157183386 0 -0.028474104046226949 -0.033559890997593489 0 -0.027955964200664447 -0.032232026496625758 0 -0.027522353428062644 -0.034052924701741913 0 -0.0265057914760276 -0.034520867896334503 0 -0.026437056364347226 -0.032714708293703633 0 -0.025397084202991426 -0.033371652578436141 0 -0.031436345918917585 -0.033858960395165637 0 -0.031556193903138997 -0.03103817826645467 0 -0.026424114523791845 -0.035567447502389819 0 -0.0265057914760276 -0.034520867896334503 0 -0.025397084202991426 -0.033371652578436141 0 -0.0265057914760276 -0.034520867896334503 0 -0.027522353428062644 -0.034052924701741913 0 -0.026437056364347226 -0.032714708293703633 0 -0.027955964200664447 -0.032232026496625758 0 -0.027522353428062644 -0.034052924701741913 0 -0.026437056364347226 -0.032714708293703633 0 -0.027955964200664447 -0.032232026496625758 0 -0.026437056364347226 -0.032714708293703633 0 -0.025389706934230424 -0.031077034368982813 0 -0.031556193903138997 -0.03103817826645467 0 -0.031548562937184416 -0.028537144971119668 0 -0.026437056364347226 -0.032714708293703633 0 -0.025397084202991426 -0.033371652578436141 0 -0.025389706934230424 -0.031077034368982813 0 -0.037715501739654662 -0.028837086993080602 0 -0.036176515713068833 -0.027291461295332841 0 -0.033932047586918111 -0.030502707945818056 0 -0.037715501739654662 -0.028837086993080602 0 -0.036176515713068833 -0.027291461295332841 0 -0.038148334072001903 -0.026147625244686851 0 -0.036467571066840287 -0.032449668859577403 0 -0.037715501739654662 -0.028837086993080602 0 -0.033932047586918111 -0.030502707945818056 0 -0.036061786329108066 -0.027479501867521232 0 -0.035277409704600277 -0.029379346319072144 0 -0.036176515713068833 -0.027291461295332841 0 -0.035957926056422854 -0.027415870184035667 0 -0.035865724369603114 -0.026727404625491752 0 -0.036176515713068833 -0.027291461295332841 0 -0.03656182523913197 -0.028151130772838921 0 -0.035957926056422854 -0.027415870184035667 0 -0.035957926056422854 -0.027415870184035667 0 -0.035288536801228849 -0.026971673782013882 0 -0.035865724369603114 -0.026727404625491752 0 -0.035957926056422854 -0.027415870184035667 0 -0.035494467286322891 -0.027552555902784052 0 -0.035288536801228849 -0.026971673782013882 0 -0.035000049519021428 -0.027529376446364759 0 -0.035933209185046673 -0.02607686301548183 0 -0.034999841660890242 -0.025840263611854784 0 -0.035494467286322891 -0.027552555902784052 0 -0.03499854231202059 -0.027530345806876775 0 -0.035288536801228849 -0.026971673782013882 0 -0.035000105964683802 -0.027529186135559686 0 -0.035581966669636762 -0.026497297146869641 0 -0.035494467286322891 -0.027552555902784052 0 -0.03499854231202059 -0.027530345806876775 0 -0.035899954277185286 -0.028533199522138251 0 -0.035957926056422854 -0.027415870184035667 0 -0.035494467286322891 -0.027552555902784052 0 -0.035899954277185286 -0.028533199522138251 0 -0.03656182523913197 -0.028151130772838921 0 -0.035957926056422854 -0.027415870184035667 0 -0.035899954277185286 -0.028533199522138251 0 -0.03656182523913197 -0.028151130772838921 0 -0.035899954277185286 -0.028533199522138251 0 -0.036676602318185425 -0.029730638019054068 0 -0.035000625215558447 -0.031827870044546493 0 -0.035899954277185286 -0.028533199522138251 0 -0.036676602318185425 -0.029730638019054068 0 -0.035000625215558447 -0.031827870044546493 0 -0.03499854231202059 -0.027530345806876775 0 -0.035899954277185286 -0.028533199522138251 0 -0.033479871914369519 -0.03526198684087295 0 -0.032769562319535289 -0.033485383992651538 0 -0.03435330311123113 -0.033554241931768737 0 -0.034682416235970036 -0.034976394469903839 0 -0.036467571066840287 -0.032449668859577403 0 -0.03435330311123113 -0.033554241931768737 0 -0.036467571066840287 -0.032449668859577403 0 -0.033932047586918111 -0.030502707945818056 0 -0.03435330311123113 -0.033554241931768737 0 -0.033932047586918111 -0.030502707945818056 0 -0.032769562319535289 -0.033485383992651538 0 -0.03435330311123113 -0.033554241931768737 0 -0.035277409704600277 -0.029379346319072144 0 -0.03473003649484975 -0.031611866427074559 0 -0.024244961329081351 -0.034367546964843773 0 -0.023687008122543391 -0.034034534850621301 0 -0.024620235105795456 -0.033777711179594862 0 -0.024244961329081351 -0.034367546964843773 0 -0.023035642354313029 -0.034780895425046775 0 -0.023687008122543391 -0.034034534850621301 0 -0.021141763999594183 -0.036359654227908003 0 -0.02141457782957671 -0.035967475848541999 0 -0.023035642354313029 -0.034780895425046775 0 -0.022936718774867186 -0.033789154029260235 0 -0.023687008122543391 -0.034034534850621301 0 -0.017935814517270554 -0.038067734053902659 0 -0.018502726711204932 -0.036700948843446879 0 -0.01994580915207704 -0.037252964745451672 0 -0.018502726711204932 -0.036700948843446879 0 -0.019836904937630982 -0.036242041258394704 0 -0.01994580915207704 -0.037252964745451672 0 -0.017935814517270554 -0.038067734053902659 0 -0.018502726711204932 -0.036700948843446879 0 -0.016831421072345251 -0.037087944308663759 0 -0.018502726711204932 -0.036700948843446879 0 -0.019107996018344744 -0.03582603025856354 0 -0.017419080559493694 -0.035922694940711368 0 -0.018105597325514946 -0.034999632982549808 0 -0.019107996018344744 -0.03582603025856354 0 -0.017419080559493694 -0.035922694940711368 0 -0.018105597325514946 -0.034999632982549808 0 -0.019107996018344744 -0.03582603025856354 0 -0.020129463241787094 -0.03499983451321171 0 -0.018502726711204932 -0.036700948843446879 0 -0.019107996018344744 -0.03582603025856354 0 -0.019836904937630982 -0.036242041258394704 0 -0.019107996018344744 -0.03582603025856354 0 -0.020738843595827904 -0.034995108750149946 0 -0.019836904937630982 -0.036242041258394704 0 -0.020738843595827904 -0.034995108750149946 0 -0.020955543075649487 -0.035820380231338531 0 -0.019836904937630982 -0.036242041258394704 0 -0.019249434786133179 -0.035784293387370533 0 -0.020754528338081887 -0.035418901872990322 0 -0.019107996018344744 -0.03582603025856354 0 -0.020129463241787094 -0.03499983451321171 0 -0.020743661878486381 -0.035826208513075899 0 -0.020754528338081887 -0.035418901872990322 0 -0.022022728529537433 -0.035141677998925258 0 -0.020738843595827904 -0.034995108750149946 0 -0.021082204541311298 -0.03530577756023548 0 -0.02172699653933469 -0.034764219809941675 0 -0.020129463241787094 -0.03499983451321171 0 -0.020743661878486381 -0.035826208513075899 0 -0.022153935195624589 -0.034999985290530687 0 -0.020743661878486381 -0.035826208513075899 0 -0.022153935195624589 -0.034999985290530687 0 -0.022493490200566849 -0.035520883014445656 0 -0.020738843595827904 -0.034995108750149946 0 -0.021082204541311298 -0.03530577756023548 0 -0.020955543075649487 -0.035820380231338531 0 -0.021082204541311298 -0.03530577756023548 0 -0.021356735151891647 -0.035512479981766314 0 -0.021469451190785645 -0.035284036730083373 0 -0.021082204541311298 -0.03530577756023548 0 -0.021356735151891647 -0.035512479981766314 0 -0.020955543075649487 -0.035820380231338531 0 -0.02141457782957671 -0.035967475848541999 0 -0.021505032856776445 -0.035585835941759694 0 -0.021356735151891647 -0.035512479981766314 0 -0.020955543075649487 -0.035820380231338531 0 -0.021486918525139658 -0.035675989870474406 0 -0.020955543075649487 -0.035820380231338531 0 -0.01994580915207704 -0.037252964745451672 0 -0.021578882518485522 -0.035476986799984928 0 -0.020955543075649487 -0.035820380231338531 0 -0.021578882518485522 -0.035476986799984928 0 -0.021486918525139658 -0.035675989870474406 0 -0.020955543075649487 -0.035820380231338531 0 -0.019836904937630982 -0.036242041258394704 0 -0.01994580915207704 -0.037252964745451672 0 -0.023035642354313029 -0.034780895425046775 0 -0.022496669400737856 -0.034233312160473282 0 -0.021959178628201313 -0.034530955437567762 0 -0.023035642354313029 -0.034780895425046775 0 -0.022496669400737856 -0.034233312160473282 0 -0.022936718774867186 -0.033789154029260235 0 -0.023035642354313029 -0.034780895425046775 0 -0.021959178628201313 -0.034530955437567762 0 -0.021578882518485522 -0.035476986799984928 0 -0.021959178628201313 -0.034530955437567762 0 -0.021543164039435219 -0.034621230934827725 0 -0.021578882518485522 -0.035476986799984928 0 -0.021543164039435219 -0.034621230934827725 0 -0.021429657216102533 -0.034074783615445518 0 -0.021545311827461489 -0.034264835214576156 0 -0.021543164039435219 -0.034621230934827725 0 -0.021429657216102533 -0.034074783615445518 0 -0.021578882518485522 -0.035476986799984928 0 -0.021429657216102533 -0.034074783615445518 0 -0.021500781375560579 -0.034079613107253458 0 -0.021545311827461489 -0.034264835214576156 0 -0.021959178628201313 -0.034530955437567762 0 -0.021543164039435219 -0.034621230934827725 0 -0.021545311827461489 -0.034264835214576156 0 -0.022059541419110922 -0.035644812720824169 0 -0.022621576261328928 -0.035579869697621301 0 -0.0223989587113286 -0.035843098986021747 0 -0.022183903663496537 -0.036106176569430888 0 -0.022059541419110922 -0.035644812720824169 0 -0.0223989587113286 -0.035843098986021747 0 -0.021692997574950659 -0.03511460836313509 0 -0.021654968046461793 -0.035630892905772787 0 -0.022059541419110922 -0.035644812720824169 0 -0.021486918525139658 -0.035675989870474406 0 -0.02166789035265558 -0.035431535525612547 0 -0.022183903663496537 -0.036106176569430888 0 -0.022059541419110922 -0.035644812720824169 0 -0.021486918525139658 -0.035675989870474406 0 -0.021429657216102533 -0.034074783615445518 0 -0.021578882518485522 -0.035476986799984928 0 -0.021486918525139658 -0.035675989870474406 0 -0.021082204541311298 -0.03530577756023548 0 -0.021469451190785645 -0.035284036730083373 0 -0.02172699653933469 -0.034764219809941675 0 -0.022059541419110922 -0.035644812720824169 0 -0.02166789035265558 -0.035431535525612547 0 -0.0219903088908695 -0.035200252278531706 0 -0.021356735151891647 -0.035512479981766314 0 -0.021486918525139658 -0.035675989870474406 0 -0.02166789035265558 -0.035431535525612547 0 -0.021356735151891647 -0.035512479981766314 0 -0.02166789035265558 -0.035431535525612547 0 -0.021469451190785645 -0.035284036730083373 0 -0.02166789035265558 -0.035431535525612547 0 -0.021776597251547975 -0.035118849479941844 0 -0.0219903088908695 -0.035200252278531706 0 -0.021776597251547975 -0.035118849479941844 0 -0.022108094233004832 -0.034908137225336519 0 -0.0219903088908695 -0.035200252278531706 0 -0.02166789035265558 -0.035431535525612547 0 -0.021776597251547975 -0.035118849479941844 0 -0.021469451190785645 -0.035284036730083373 0 -0.022153935195624589 -0.034999985290530687 0 -0.022493490200566849 -0.035520883014445656 0 -0.024178246148461351 -0.034999999682115764 0 -0.021776597251547975 -0.035118849479941844 0 -0.021469451190785645 -0.035284036730083373 0 -0.02172699653933469 -0.034764219809941675 0 -0.021776597251547975 -0.035118849479941844 0 -0.02172699653933469 -0.034764219809941675 0 -0.022108094233004832 -0.034908137225336519 0 -0.022493490200566849 -0.035520883014445656 0 -0.024205942589666921 -0.035123584514235605 0 -0.024178246148461351 -0.034999999682115764 0 -0.022022728529537433 -0.035141677998925258 0 -0.023871645838746503 -0.03485940610183768 0 -0.02172699653933469 -0.034764219809941675 0 -0.022108094233004832 -0.034908137225336519 0 -0.022668621681855815 -0.034525436950666143 0 -0.022108094233004832 -0.034908137225336519 0 -0.022383481755854199 -0.034929426272334863 0 -0.0219903088908695 -0.035200252278531706 0 -0.022108094233004832 -0.034908137225336519 0 -0.022383481755854199 -0.034929426272334863 0 -0.022668621681855815 -0.034525436950666143 0 -0.022383481755854199 -0.034929426272334863 0 -0.0219903088