<?xml version="1.0"?>
<VTKFile type="UnstructuredGrid" version="0.1" byte_order="LittleEndian">
<UnstructuredGrid>
<Piece NumberOfPoints="31898" NumberOfCells="11152">
<Points>
<DataArray type="Float64" NumberOfComponents="3" format="ascii">
-0.5 -0.5 0 -0.47620991077874902 -0.44978878706170539 0 -0.49999999999999473 -0.42132396840504388 0 -0.5 -0.5 0 -0.47160970827802529 -0.4793630013852106 0 -0.47620991077874902 -0.44978878706170539 0 -0.5 -0.5 0 -0.47160970827802529 -0.4793630013852106 0 -0.44860394795025399 -0.5 0 -0.47160970827802529 -0.4793630013852106 0 -0.44860394795025399 -0.5 0 -0.4490820238307246 -0.45820516232899983 0 -0.44860394795025399 -0.5 0 -0.4490820238307246 -0.45820516232899983 0 -0.42881687682924802 -0.47781464288736519 0 -0.4490820238307246 -0.45820516232899983 0 -0.45555437223955858 -0.42914059360647611 0 -0.4490820238307246 -0.45820516232899983 0 -0.45555437223955858 -0.42914059360647611 0 -0.43867285131603428 -0.4271457417558665 0 -0.4490820238307246 -0.45820516232899983 0 -0.43867285131603428 -0.4271457417558665 0 -0.4263356171060747 -0.44269880333887462 0 -0.47160970827802529 -0.4793630013852106 0 -0.4490820238307246 -0.45820516232899983 0 -0.47620991077874902 -0.44978878706170539 0 -0.4490820238307246 -0.45820516232899983 0 -0.47620991077874902 -0.44978878706170539 0 -0.45555437223955858 -0.42914059360647611 0 -0.47620991077874902 -0.44978878706170539 0 -0.48101336032419229 -0.41069999664450008 0 -0.45555437223955858 -0.42914059360647611 0 -0.47620991077874902 -0.44978878706170539 0 -0.49999999999999473 -0.42132396840504388 0 -0.48101336032419229 -0.41069999664450008 0 -0.49999999999999473 -0.42132396840504388 0 -0.48101336032419229 -0.41069999664450008 0 -0.5 -0.393886241813306 0 -0.49999999999999473 -0.42132396840504388 0 -0.48101336032419229 -0.41069999664450008 0 -0.5 -0.393886241813306 0 -0.47854472220918332 -0.38978458738689759 0 -0.48422759779560409 -0.37130120630367158 0 -0.5 -0.393886241813306 0 -0.5 -0.36644851522156802 0 -0.48422759779560409 -0.37130120630367158 0 -0.48101336032419229 -0.41069999664450008 0 -0.5 -0.393886241813306 0 -0.47854472220918332 -0.38978458738689759 0 -0.48101336032419229 -0.41069999664450008 0 -0.47854472220918332 -0.38978458738689759 0 -0.46202672064839212 -0.40007602488395211 0 -0.48101336032419229 -0.41069999664450008 0 -0.46202672064839212 -0.40007602488395211 0 -0.47854472220918332 -0.38978458738689759 0 -0.46725442735267431 -0.37660061361585562 0 -0.46202672064839212 -0.40007602488395211 0 -0.47854472220918332 -0.38978458738689759 0 -0.46725442735267431 -0.37660061361585562 0 -0.48422759779560409 -0.37130120630367158 0 -0.46725442735267431 -0.37660061361585562 0 -0.46202672064839212 -0.40007602488395211 0 -0.46725442735267431 -0.37660061361585562 0 -0.45645674801697989 -0.38644133236760531 0 -0.46202672064839212 -0.40007602488395211 0 -0.46725442735267431 -0.37660061361585562 0 -0.45645674801697989 -0.38644133236760531 0 -0.4540003998136638 -0.37455519391687309 0 -0.45645674801697989 -0.38644133236760531 0 -0.46202672064839212 -0.40007602488395211 0 -0.44257020456291563 -0.38918913383950271 0 -0.46202672064839212 -0.40007602488395211 0 -0.44257020456291563 -0.38918913383950271 0 -0.44727608925983742 -0.41095911152778891 0 -0.46202672064839212 -0.40007602488395211 0 -0.44257020456291563 -0.38918913383950271 0 -0.44257020456291563 -0.38918913383950271 0 -0.44727608925983742 -0.41095911152778891 0 -0.43479358559901082 -0.4041454901736512 0 -0.44257020456291563 -0.38918913383950271 0 -0.4540003998136638 -0.37455519391687309 0 -0.44172858264042247 -0.37082207246888088 0 -0.45645674801697989 -0.38644133236760531 0 -0.44257020456291563 -0.38918913383950271 0 -0.4540003998136638 -0.37455519391687309 0 -0.46202672064839212 -0.40007602488395211 0 -0.45555437223955858 -0.42914059360647611 0 -0.44727608925983742 -0.41095911152778891 0 -0.46202672064839212 -0.40007602488395211 0 -0.45555437223955858 -0.42914059360647611 0 -0.48101336032419229 -0.41069999664450008 0 -0.46202672064839212 -0.40007602488395211 0 -0.45555437223955858 -0.42914059360647611 0 -0.44727608925983742 -0.41095911152778891 0 -0.43867285131603428 -0.4271457417558665 0 -0.43676601469929588 -0.41441201227470881 0 -0.44727608925983742 -0.41095911152778891 0 -0.43676601469929588 -0.41441201227470881 0 -0.43479358559901082 -0.4041454901736512 0 -0.45555437223955858 -0.42914059360647611 0 -0.44727608925983742 -0.41095911152778891 0 -0.43867285131603428 -0.4271457417558665 0 -0.43867285131603428 -0.4271457417558665 0 -0.42681803064840879 -0.42717069814352421 0 -0.4263356171060747 -0.44269880333887462 0 -0.42681803064840879 -0.42717069814352421 0 -0.41531815884496182 -0.42985383783075998 0 -0.4263356171060747 -0.44269880333887462 0 -0.42681803064840879 -0.42717069814352421 0 -0.42624289495594048 -0.42089725947505818 0 -0.42083332353326591 -0.42146747131641099 0 -0.42681803064840879 -0.42717069814352421 0 -0.43096994786351572 -0.41951492446283251 0 -0.42624289495594048 -0.42089725947505818 0 -0.43867285131603428 -0.4271457417558665 0 -0.42681803064840879 -0.42717069814352421 0 -0.43096994786351572 -0.41951492446283251 0 -0.43867285131603428 -0.4271457417558665 0 -0.43676601469929588 -0.41441201227470881 0 -0.43096994786351572 -0.41951492446283251 0 -0.43676601469929588 -0.41441201227470881 0 -0.43096994786351572 -0.41951492446283251 0 -0.42907264086257813 -0.41311715872526122 0 -0.43676601469929588 -0.41441201227470881 0 -0.42907264086257813 -0.41311715872526122 0 -0.43479358559901082 -0.4041454901736512 0 -0.42907264086257813 -0.41311715872526122 0 -0.43479358559901082 -0.4041454901736512 0 -0.42460885511582858 -0.40417321677700252 0 -0.42907264086257813 -0.41311715872526122 0 -0.41997834854398469 -0.41180534796019508 0 -0.42907264086257813 -0.41311715872526122 0 -0.42635027777857132 -0.41543594397746519 0 -0.41997834854398469 -0.41180534796019508 0 -0.42907264086257813 -0.41311715872526122 0 -0.41997834854398469 -0.41180534796019508 0 -0.42460885511582858 -0.40417321677700252 0 -0.42635027777857132 -0.41543594397746519 0 -0.41997834854398469 -0.41180534796019508 0 -0.42635027777857132 -0.41543594397746519 0 -0.42083332353326591 -0.42146747131641099 0 -0.41997834854398469 -0.41180534796019508 0 -0.43096994786351572 -0.41951492446283251 0 -0.42624289495594048 -0.42089725947505818 0 -0.42635027777857132 -0.41543594397746519 0 -0.43096994786351572 -0.41951492446283251 0 -0.42907264086257813 -0.41311715872526122 0 -0.42635027777857132 -0.41543594397746519 0 -0.42624289495594048 -0.42089725947505818 0 -0.42635027777857132 -0.41543594397746519 0 -0.42083332353326591 -0.42146747131641099 0 -0.42083332353326591 -0.42146747131641099 0 -0.41997834854398469 -0.41180534796019508 0 -0.40992282953163789 -0.42011435591993562 0 -0.41997834854398469 -0.41180534796019508 0 -0.39756877647335259 -0.40857286797681719 0 -0.41997834854398469 -0.41180534796019508 0 -0.40992282953163789 -0.42011435591993562 0 -0.39756877647335259 -0.40857286797681719 0 -0.40992282953163789 -0.42011435591993562 0 -0.41531815884496182 -0.42985383783075998 0 -0.39591554026262499 -0.42887225451549271 0 -0.41531815884496182 -0.42985383783075998 0 -0.39591554026262499 -0.42887225451549271 0 -0.41160927495564159 -0.44339431233754628 0 -0.42083332353326591 -0.42146747131641099 0 -0.40992282953163789 -0.42011435591993562 0 -0.41531815884496182 -0.42985383783075998 0 -0.42681803064840879 -0.42717069814352421 0 -0.42083332353326591 -0.42146747131641099 0 -0.41531815884496182 -0.42985383783075998 0 -0.44257020456291563 -0.38918913383950271 0 -0.42311368847744002 -0.37830224279505142 0 -0.42594061475171041 -0.39368797999533162 0 -0.44257020456291563 -0.38918913383950271 0 -0.42311368847744002 -0.37830224279505142 0 -0.44172858264042247 -0.37082207246888088 0 -0.44257020456291563 -0.38918913383950271 0 -0.42311368847744002 -0.37830224279505142 0 -0.42311368847744002 -0.37830224279505142 0 -0.42594061475171041 -0.39368797999533162 0 -0.416587075656149 -0.38785930376960043 0 -0.44257020456291563 -0.38918913383950271 0 -0.42594061475171041 -0.39368797999533162 0 -0.43479358559901082 -0.4041454901736512 0 -0.42594061475171041 -0.39368797999533162 0 -0.43479358559901082 -0.4041454901736512 0 -0.42460885511582858 -0.40417321677700252 0 -0.41997834854398469 -0.41180534796019508 0 -0.41325908582185972 -0.39811010703057192 0 -0.39770572831670092 -0.39911486077581648 0 -0.41997834854398469 -0.41180534796019508 0 -0.39770572831670092 -0.39911486077581648 0 -0.42594061475171041 -0.39368797999533162 0 -0.42460885511582858 -0.40417321677700252 0 -0.41325908582185972 -0.39811010703057192 0 -0.41997834854398469 -0.41180534796019508 0 -0.42460885511582858 -0.40417321677700252 0 -0.41325908582185972 -0.39811010703057192 0 -0.42594061475171041 -0.39368797999533162 0 -0.41325908582185972 -0.39811010703057192 0 -0.416587075656149 -0.38785930376960043 0 -0.41325908582185972 -0.39811010703057192 0 -0.416587075656149 -0.38785930376960043 0 -0.40403491357358612 -0.38133688525744702 0 -0.42311368847744002 -0.37830224279505142 0 -0.40403491357358612 -0.38133688525744702 0 -0.40365717239196519 -0.36741535175059892 0 -0.42311368847744002 -0.37830224279505142 0 -0.416587075656149 -0.38785930376960043 0 -0.40403491357358612 -0.38133688525744702 0 -0.40403491357358612 -0.38133688525744702 0 -0.39190790742475001 -0.38540387676521748 0 -0.39770572831670092 -0.39911486077581648 0 -0.40403491357358612 -0.38133688525744702 0 -0.39190790742475001 -0.38540387676521748 0 -0.3904578797192948 -0.37473938743617019 0 -0.41325908582185972 -0.39811010703057192 0 -0.40403491357358612 -0.38133688525744702 0 -0.39770572831670092 -0.39911486077581648 0 -0.39770572831670092 -0.39911486077581648 0 -0.37543310808941849 -0.38642437359143528 0 -0.39770572831670092 -0.39911486077581648 0 -0.37515920440272033 -0.40534038799344108 0 -0.37543310808941849 -0.38642437359143528 0 -0.39770572831670092 -0.39911486077581648 0 -0.37515920440272033 -0.40534038799344108 0 -0.39756877647335259 -0.40857286797681719
[...]
<PointData Scalars="" Vectors="displacement," Tensors="">
<DataArray type="Float64" Name="displacement" NumberOfComponents="3" format="ascii">
1.2138932174696906e-06 0.024997714019468698 0 0.00012165292070223 0.023372902028534388 0 -2.5701088302005717e-06 0.021072026105458851 0 1.2138932174696906e-06 0.024997714019468698 0 0.00011203801439178482 0.024429110465435402 0 0.00012165292070223 0.023372902028534388 0 1.2138932174696906e-06 0.024997714019468698 0 0.00011203801439178482 0.024429110465435402 0 -4.3663104764150828e-09 0.024999389146896464 0 0.00011203801439178482 0.024429110465435402 0 -4.3663104764150828e-09 0.024999389146896464 0 6.1675833403784848e-05 0.024429276882568306 0 -4.3663104764150828e-09 0.024999389146896464 0 6.1675833403784848e-05 0.024429276882568306 0 4.8633857680962771e-05 0.024832166425913689 0 0.00021337233588013827 0.022897496814941919 0 -8.3701317526806017e-06 0.022246599018959177 0 6.1675833403784848e-05 0.024429276882568306 0 -0.00028159103292286548 0.024407550937503353 0 -0.00030364582557012074 0.024546288949695121 0 6.1675833403784848e-05 0.024429276882568306 0 -0.00030364582557012074 0.024546288949695121 0 -0.00014897183096201664 0.02470360921933603 0 0.00011203801439178482 0.024429110465435402 0 6.1675833403784848e-05 0.024429276882568306 0 0.00012165292070223 0.023372902028534388 0 6.1675833403784848e-05 0.024429276882568306 0 0.00012165292070223 0.023372902028534388 0 -0.00044513629135670645 0.023841658396288493 0 0.00012165292070223 0.023372902028534388 0 -0.00094598302969706107 0.022589006567886576 0 -0.00044513629135670645 0.023841658396288493 0 0.00012165292070223 0.023372902028534388 0 -2.5701088302005717e-06 0.021072026105458851 0 -0.00094598302969706107 0.022589006567886576 0 -1.4145215063339265e-06 0.021064038261907395 0 -0.00021520840048078733 0.019424405234693864 0 5.9692146186991595e-07 0.019694319488358713 0 -8.8172767875139339e-07 0.021065377517841703 0 -0.00037156236835824037 0.020688354375797614 0 5.9692146186991595e-07 0.019694319488358713 0 5.6719823240796296e-05 0.018920639345560691 0 0.0001197296343432318 0.018415367082793226 0 5.9692146186991595e-07 0.019694319488358713 0 1.8202289221674778e-07 0.018322266879709691 0 0.0001197296343432318 0.018415367082793226 0 -0.00021520840048078733 0.019424405234693864 0 5.9692146186991595e-07 0.019694319488358713 0 5.6719823240796296e-05 0.018920639345560691 0 -0.00021520840048078733 0.019424405234693864 0 5.6719823240796296e-05 0.018920639345560691 0 -9.4392739779122184e-05 0.018736182883897154 0 -0.00037156236835824037 0.020688354375797614 0 -0.0005472550850225043 0.019930029695726579 0 5.6719823240796296e-05 0.018920639345560691 0 0.00014734211097044818 0.018573850620773491 0 -9.4392739779122184e-05 0.018736182883897154 0 5.6719823240796296e-05 0.018920639345560691 0 0.00014734211097044818 0.018573850620773491 0 0.0001197296343432318 0.018415367082793226 0 -0.00039340945497448788 0.018102911595690791 0 -0.0005472550850225043 0.019930029695726579 0 -0.00057533310931665819 0.014563778969229437 0 -0.00038488481246844256 0.014756666255761542 0 -0.00013724088799487902 0.014662097980590788 0 -0.00057533310931665819 0.014563778969229437 0 -0.00038488481246844256 0.014756666255761542 0 -0.00058822161869320105 0.014789097813896701 0 -0.00038488481246844256 0.014756666255761542 0 -0.00013724088799487902 0.014662097980590788 0 -0.00032815486935151389 0.01500698467830117 0 -0.00040075126631534816 0.024459988844207678 0 -0.00035392506784969748 0.02452177297958507 0 -0.00038020893677310293 0.024493794512488985 0 -0.0005472550850225043 0.019930029695726579 0 -0.00047480912629893634 0.019717351820178898 0 -0.00035392506784969748 0.02452177297958507 0 -0.00038020893677310293 0.024493794512488985 0 -0.00038828450214255559 0.024518378238154299 0 -0.00032815486935151389 0.01500698467830117 0 -0.00058822161869320105 0.014789097813896701 0 -0.00064961085483651029 0.015015536425570136 0 -0.00038488481246844256 0.014756666255761542 0 -0.00032815486935151389 0.01500698467830117 0 -0.00058822161869320105 0.014789097813896701 0 -0.00040075126631534816 0.024459988844207678 0 -0.00028159103292286548 0.024407550937503353 0 -0.00038020893677310293 0.024493794512488985 0 -0.0005472550850225043 0.019930029695726579 0 -8.3701317526806017e-06 0.022246599018959177 0 -0.00094598302969706107 0.022589006567886576 0 -0.001460023871361118 0.023426524773592236 0 -0.00044513629135670645 0.023841658396288493 0 -0.00038020893677310293 0.024493794512488985 0 -0.00030364582557012074 0.024546288949695121 0 -0.00038335587418257273 0.024535584915874754 0 -0.00038020893677310293 0.024493794512488985 0 -0.00038335587418257273 0.024535584915874754 0 -0.00038828450214255559 0.024518378238154299 0 -0.00028159103292286548 0.024407550937503353 0 -0.00038020893677310293 0.024493794512488985 0 -0.00030364582557012074 0.024546288949695121 0 -0.00030364582557012074 0.024546288949695121 0 -0.00029047345081270116 0.024653634590514721 0 -0.00014897183096201664 0.02470360921933603 0 -0.00029047345081270116 0.024653634590514721 0 -0.00026193561917232743 0.024775114301244093 0 -0.00014897183096201664 0.02470360921933603 0 -0.00029047345081270116 0.024653634590514721 0 -0.00034491557093770868 0.024638662793580769 0 -0.00033765659918541296 0.024704170585750987 0 -0.00029047345081270116 0.024653634590514721 0 -0.00035787330041372144 0.02458218535110477 0 -0.00034491557093770868 0.024638662793580769 0 -0.00030364582557012074 0.024546288949695121 0 -0.00029047345081270116 0.024653634590514721 0 -0.00035787330041372144 0.02458218535110477 0 -0.00030364582557012074 0.024546288949695121 0 -0.00038335587418257273 0.024535584915874754 0 -0.00035787330041372144 0.02458218535110477 0 -0.00038335587418257273 0.024535584915874754 0 -0.00035787330041372144 0.02458218535110477 0 -0.00042440315898593044 0.024551374934791658 0 -0.00038335587418257273 0.024535584915874754 0 -0.00042440315898593044 0.024551374934791658 0 -0.00038828450214255559 0.024518378238154299 0 -0.00042440315898593044 0.024551374934791658 0 -0.00038828450214255559 0.024518378238154299 0 -0.00039451955574427874 0.024468937718286145 0 -0.0009109645051889651 0.02401211660889831 0 -0.0009202086728141972 0.023945729774280368 0 -0.00042440315898593044 0.024551374934791658 0 -0.00039497953170547235 0.024616386529339871 0 -0.00047508936723168787 0.024745522379077969 0 -0.00042440315898593044 0.024551374934791658 0 -0.00046424071506394196 0.024430360158864781 0 -0.00039451955574427874 0.024468937718286145 0 -0.00091990455190643031 0.023978990619541785 0 -0.0009202086728141972 0.023945729774280368 0 -0.00039497953170547235 0.024616386529339871 0 -0.00033765659918541296 0.024704170585750987 0 -0.00043905090363354068 0.0247108837771635 0 -0.00035787330041372144 0.02458218535110477 0 -0.00034491557093770868 0.024638662793580769 0 -0.00039497953170547235 0.024616386529339871 0 -0.00035787330041372144 0.02458218535110477 0 -0.00042440315898593044 0.024551374934791658 0 -0.00039497953170547235 0.024616386529339871 0 -0.00034491557093770868 0.024638662793580769 0 -0.00039497953170547235 0.024616386529339871 0 -0.00033765659918541296 0.024704170585750987 0 -0.00033765659918541296 0.024704170585750987 0 -0.00043905090363354068 0.0247108837771635 0 -0.00035148302078602669 0.024816594338031014 0 -0.0009202086728141972 0.023945729774280368 0 -0.00076531977936459281 0.023799053654062857 0 -0.00043905090363354068 0.0247108837771635 0 -0.00035148302078602669 0.024816594338031014 0 -0.00045522432741133259 0.024929621321368785 0 -0.00035148302078602669 0.024816594338031014 0 -0.00026193561917232743 0.024775114301244093 0 -0.00027228508008019279 0.024946124666852861 0 -0.00026193561917232743 0.024775114301244093 0 -0.00027228508008019279 0.024946124666852861 0 -0.00014533655809693201 0.024827428821162796 0 -0.00033765659918541296 0.024704170585750987 0 -0.00035148302078602669 0.024816594338031014 0 -0.00026193561917232743 0.024775114301244093 0 -0.00029047345081270116 0.024653634590514721 0 -0.00033765659918541296 0.024704170585750987 0 -0.00026193561917232743 0.024775114301244093 0 -0.00035392506784969748 0.02452177297958507 0 -0.00019959099756687061 0.024426374311589137 0 -0.00033398723636055531 0.024457458244604786 0 -0.00032815486935151389 0.01500698467830117 0 -0.00051170537030822364 0.015365087296197413 0 -0.00064961085483651029 0.015015536425570136 0 -0.00047480912629893634 0.019717351820178898 0 -0.00051801331495315015 0.01958733732101639 0 -0.00019959099756687061 0.024426374311589137 0 -0.00033398723636055531 0.024457458244604786 0 -0.00027625573095879842 0.024367276666743883 0 -0.00035392506784969748 0.02452177297958507 0 -0.00033398723636055531 0.024457458244604786 0 -0.00038828450214255559 0.024518378238154299 0 -0.00033398723636055531 0.024457458244604786 0 -0.00038828450214255559 0.024518378238154299 0 -0.00039451955574427874 0.024468937718286145 0 -0.00046424071506394196 0.024430360158864781 0 -0.00036516232915741154 0.02434472105001401 0 -0.00039661921822275282 0.02416554272982073 0 -0.0009202086728141972 0.023945729774280368 0 -0.00096613264829154943 0.023178256644173591 0 -0.00033398723636055531 0.024457458244604786 0 -0.00039451955574427874 0.024468937718286145 0 -0.00036516232915741154 0.02434472105001401 0 -0.00046424071506394196 0.024430360158864781 0 -0.00039451955574427874 0.024468937718286145 0 -0.00036516232915741154 0.02434472105001401 0 -0.00033398723636055531 0.024457458244604786 0 -0.00036516232915741154 0.02434472105001401 0 -0.00027625573095879842 0.024367276666743883 0 -0.00036516232915741154 0.02434472105001401 0 -0.00027625573095879842 0.024367276666743883 0 -0.00020273833105252618 0.024233437952647378 0 -0.00019959099756687061 0.024426374311589137 0 -0.00020273833105252618 0.024233437952647378 0 -6.5310062313201213e-05 0.024222068612467711 0 -0.00019959099756687061 0.024426374311589137 0 -0.00027625573095879842 0.024367276666743883 0 -0.00020273833105252618 0.024233437952647378 0 -0.00020273833105252618 0.024233437952647378 0 -0.00024302274649056675 0.0240793594933962 0 -0.00039661921822275282 0.02416554272982073 0 -0.00020273833105252618 0.024233437952647378 0 -0.00024302274649056675 0.0240793594933962 0 -0.00010787292775885826 0.024052711697847593 0 -0.00036516232915741154 0.02434472105001401 0 -0.00020273833105252618 0.024233437952647378 0 -0.00039661921822275282 0.02416554272982073 0 -0.00096613264829154943 0.023178256644173591 0 -0.0008881258393116739 0.021609697335229102 0 -0.00091963433874537399 0.023122572821928547 0 -0.0010910748708287659 0.022499442253811217 0 -0.00057001701642493436 0.022505386690234178 0 -0.00091963433874537399 0.023122572821928547 0 -0.0010910748708287659 0.022499442253811217 0 -0.0011806904075267761 0.023119338369239892 0 -0.00052847760379444019 0.023148623374773931 0 -0.0008881258393116739 0.021609697335229102 0 -0.00026088909279453572 0.023859037113335823 0 -0.00010787292775885826 0.024052711697847593 0 -3.4253952602882358e-05 0.023850581042961637 0 -0.00024302274649056675 0.0240793594933962 0 -0.00026088909279453572 0.023859037113335823 0 -0.00010787292775885826 0.024052711697847593 0 -0.0008881258393116739 0.021609697335229102 0 -0.00061656293971129182 0.020256914668969422 0 -0.00024302274649056675 0.0240793594933962 0 -0.00039661921822275282 0.02416554272982073 0 -0.00026088909279453572 0.023859037113335823 0 -0.001269663364232709 0.023740363787896419 0 -0.00091963433874537399 0.023122572821928547 0 -0.0011806904075267761 0.023119338369239892 0 -0.00035148302078602669 0.024816594338031014 0 -0.00027228508008019279 0.024946124666852861 0 -0.00045522432741133259 0.024929621321368785 0 -0.00048002528260970433 0.025120976347861031 0 -0.00027228508008019279 0.024946124666852861 0 -0.00045522432741133259 0.024929621321368785 0 -0.00052847760379444019 0.023148623374773931 0 -0.00076531977936459281 0.023799053654062857 0 -0.00048002528260970433 0.025120976347861031 0 -0.00027228508008019279 0.024946124666852861 0 -0.00021703753081290809 0.025124063024603769 0 -0.00027228508008019279 0.024946124666852861 0 -0.00012445624747368898 0.024972419153087878 0 -0.00021703753081290809 0.025124063024603769 0 -0.00012445624747368898 0.024972419153087878 0 3.0371943767496859e-05 0.025124984801886328 0 -0.00021703753081290809 0.025124063024603769 0 -0.00027228508008019279 0.024946124666852861 0 -0.00012445624747368898 0.024972419153087878 0 -0.00014533655809693201 0.024827428821162796 0 -0.00012445624747368898 0.024972419153087878 0 -3.6476944371840495e-05 0.024886192579064909 0 -0.00014533655809693201 0.024827428821162796 0 -3.4084676757773174e-05 0.024906660528294385 0 1.5388992354355379e-05 0.024965662176448675 0 1.5841204221668564e-05 0.02488446995595715 0 -3.6940154003280775e-06 0.024995940958630117 0 -2.984048279338632e-06 0.02499813476568306 0 -6.6372224143912368e-07 0.024998153304438612 0 -4.7816528027860061e-05 0.024923828357991944 0 -4.310843134338467e-06 0.024973318759552599 0 -4.7816528027860061e-05 0.024923828357991944 0 -4.7855471446937582e-05 0.024923513791420944 0 -4.7816528027860061e-05 0.024923828357991944 0 -5.2177777297885107e-05 0.02489202060999425 0 -0.00012445624747368898 0.024972419153087878 0 -3.6476944371840495e-05 0.024886192579064909 0 -2.9691723178519688e-06 0.025004251232485973 0 -0.00012445624747368898 0.024972419153087878 0 -2.9691723178519688e-06 0.025004251232485973 0 3.0371943767496859e-05 0.025124984801886328 0 -5.2177777297885107e-05 0.02489202060999425 0 -8.7010814811022279e-05 0.024761993198579805 0 -2.984048279338632e-06 0.02499813476568306 0 -1.5063659898172765e-06 0.024998810762272301 0 -2.3507487175034609e-06 0.024999788409951342 0 -1.5063659898172765e-06 0.024998810762272301 0 -6.6372224143912368e-07 0.024998153304438612 0 -5.1765657106862867e-07 0.024999728578018601 0 -6.6372224143912368e-07 0.024998153304438612 0 -2.5645521575501813e-07 0.024999812066118458 0 -5.1765657106862867e-07 0.024999728578018601 0 -1.5063659898172765e-06 0.024998810762272301 0 -5.1765657106862867e-07 0.024999728578018601 0 -2.3507487175034609e-06 0.024999788409951342 0 -2.984048279338632e-06 0.02499813476568306 0 -1.5063659898172765e-06 0.024998810762272301 0 -6.6372224143912368e-07 0.024998153304438612 0 1.7904434966072194e-08 0.024999959796676838 0 -4.310843134338467e-06 0.024973318759552599 0 1.0855438776942343e-09 0.02499999834782593 0 -6.6372224143912368e-07 0.024998153304438612 0 -2.5645521575501813e-07 0.024999812066118458 0 -4.0609805445742028e-08 0.02499998848522543 0 1.5388992354355379e-05 0.024965662176448675 0 1.0061228378484965e-07 0.024999914968791049 0 1.5388992354355379e-05 0.024965662176448675 0 1.5841204221668564e-05 0.02488446995595715 0 1.0061228378484965e-07 0.024999914968791049 0 1.5841204221668564e-05 0.02488446995595715 0 1.0061228378484965e-07 0.024999914968791049 0 4.8633857680962771e-05 0.024832166425913689 0 -4.3663104764150828e-09 0.024999389146896464 0 1.0061228378484965e-07 0.024999914968791049 0 4.8633857680962771e-05 0.024832166425913689 0 1.5841204221668564e-05 0.02488446995595715 0 4.8633857680962771e-05 0.024832166425913689 0 -1.4307269199440278e-06 0.024752707309955185 0 6.1675833403784848e-05 0.024429276882568306 0 4.8633857680962771e-05 0.024832166425913689 0 -1.4307269199440278e-06 0.024752707309955185 0 6.1675833403784848e-05 0.024429276882568306 0 -1.4307269199440278e-06 0.024752707309955185 0 -0.00014897183096201664 0.02470360921933603 0 -1.4307269199440278e-06 0.024752707309955185 0 -0.00014897183096201664 0.02470360921933603 0 -5.724097321929194e-05 0.024814065785373412 0 -0.00014897183096201664 0.02470360921933603 0 -0.00014533655809693201 0.024827428821162796 0 -5.724097321929194e-05 0.024814065785373412 0 -0.00026193561917232743 0.024775114301244093 0 -0.00014897183096201664 0.02470360921933603 0 -0.00014533655809693201 0.024827428821162796 0 -3.4544447664410776e-05 0.024916230846780223 0 -0.00014533655809693201 0.024827428821162796 0 -3.9513516165649867e-05 0.024892381382988073 0 -0.00014533655809693201 0.024827428821162796 0 -3.9513516165649867e-05 0.024892381382988073 0 -5.724097321929194e-05 0.024814065785373412 0 -4.7816528027860061e-05 0.024923828357991944 0 -6.8395670297403925e-05 0.024908935135252452 0 1.5841204221668564e-05 0.02488446995595715 0 -3.9513516165649867e-05 0.024892381382988073 0 -5.724097321929194e-05 0.024814065785373412 0 -3.4084676757773174e-05 0.024906660528294385 0 1.5841204221668564e-05 0.02488446995595715 0 -3.9513516165649867e-05 0.024892381382988073 0 1.5841204221668564e-05 0.02488446995595715 0 -1.4307269199440278e-06 0.024752707309955185 0 -5.724097321929194e-05 0.024814065785373412 0 -0.00081333451925533564 0.012869993528017048 0 -0.0011509525892753288 0.012241413315073599 0 -0.00036068809795444822 0.01254514169207451 0 -0.00042847727511304234 0.012146727933957775 0 -0.00024001220004820674 0.012414688680072875 0 8.6091211282462418e-05 0.01399473597455371 0 -0.00010491344756914923 0.013964178848507975 0 -5.5909586833233811e-05 0.014055201526950322 0 8.6091211282462418e-05 0.01399473597455371 0 5.0294623320262772e-05 0.01401686356005828 0 -5.5909586833233811e-05 0.014055201526950322 0 8.6091211282462418e-05 0.01399473597455371 0 4.9467488849666855e-05 0.01394871372979798 0 5.0294623320262772e-05 0.01401686356005828 0 8.6091211282462418e-05 0.01399473597455371 0 7.9691770403356432e-05 0.013798754998339718 0 0.00012902831330397385 0.014043570109025858 0 8.6091211282462418e-05 0.01399473597455371 0 7.9691770403356432e-05 0.013798754998339718 0 -0.00010491344756914923 0.013964178848507975 0 -0.00081333451925533564 0.012869993528017048 0 -0.00070079082319052244 0.012984333319237198 0 7.9691770403356432e-05 0.013798754998339718 0 -0.00010491344756914923 0.013964178848507975 0 -0.00010209917210957219 0.013219066337849151 0 -0.00036068809795444822 0.01254514169207451 0 -0.00010209917210957219 0.013219066337849151 0 -3.8479561650594762e-05 0.012729093335632829 0 -0.00010209917210957219 0.013219066337849151 0 2.9261721669006164e-07 0.012834709675696282 0 8.7523382965847831e-05 0.013761960632104314 0 -0.00010209917210957219 0.013219066337849151 0 2.9261721669006164e-07 0.012834709675696282 0 1.5529556880374852e-05 0.0125471655653119 0 2.9261721669006164e-07 0.012834709675696282 0 8.7523382965847831e-05 0.013761960632104314 0 2.5882548401975299e-07 0.014206765244211815 0 7.9691770403356432e-05 0.013798754998339718 0 -0.00010209917210957219 0.013219066337849151 0 8.7523382965847831e-05 0.013761960632104314 0 7.9691770403356432e-05 0.013798754998339718 0 8.7523382965847831e-05 0.013761960632104314 0 0.00012902831330397385 0.014043570109025858 0 0.00012902831330397385 0.014043570109025858 0 5.4246235577272711e-05 0.014479185700362593 0 1.6132035273447856e-05 0.01439260699255728 0 8.7523382965847831e-05 0.013761960632104314 0 0.00012902831330397385 0.014043570109025858 0 5.4246235577272711e-05 0.014479185700362593 0 2.5882548401975299e-07 0.014206765244211815 0 5.4246235577272711e-05 0.014479185700362593 0 -3.2776295390861657e-07 0.015578558061286791 0 8.7523382965847831e-05 0.013761960632104314 0 2.5882548401975299e-07 0.014206765244211815 0 5.4246235577272711e-05 0.014479185700362593 0 5.4246235577272711e-05 0.014479185700362593 0 -3.2776295390861657e-07 0.015578558061286791 0 -0.00010579904524555257 0.015033703463394178 0 -0.00010579904524555257 0.015033703463394178 0 1.6132035273447856e-05 0.01439260699255728 0 -0.0003925272366846718 0.014561986049624746 0 5.4246235577272711e-05 0.014479185700362593 0 -0.00010579904524555257 0.015033703463394178 0 1.6132035273447856e-05 0.01439260699255728 0 1.6132035273447856e-05 0.01439260699255728 0 -0.00018428696250164133 0.014228248684358511 0 -0.0003925272366846718 0.014561986049624746 0 -0.00018428696250164133 0.014228248684358511 0 -0.00013140887034186603 0.013996784940134002 0 -0.00035091018222536594 0.014087150941233254 0 -0.00018428696250164133 0.014228248684358511 0 5.5907189842704272e-05 0.014082540180959176 0 -0.00013140887034186603 0.013996784940134002 0 1.6132035273447856e-