<?xml version="1.0"?>
<VTKFile type="UnstructuredGrid" version="0.1" byte_order="LittleEndian">
<UnstructuredGrid>
<Piece NumberOfPoints="29363" NumberOfCells="10318">
<Points>
<DataArray type="Float64" NumberOfComponents="3" format="ascii">
-0.5 -0.5 0 -0.47935112372208111 -0.47164961902022168 0 -0.48818340082534162 -0.44329923804044391 0 -0.5 -0.5 0 -0.48818340082534162 -0.44329923804044391 0 -0.4990703154209134 -0.40071045380544212 0 -0.47935112372208111 -0.47164961902022168 0 -0.47034729599720648 -0.47674824172495878 0 -0.46932161335163602 -0.48522058863877299 0 -0.47935112372208111 -0.47164961902022168 0 -0.47034729599720648 -0.47674824172495878 0 -0.46688094282658948 -0.47130467395963749 0 -0.47935112372208111 -0.47164961902022168 0 -0.46932161335163602 -0.48522058863877299 0 -0.47051884661882082 -0.49999999999999961 0 -0.47935112372208111 -0.47164961902022168 0 -0.47051884661882082 -0.49999999999999961 0 -0.5 -0.5 0 -0.47935112372208111 -0.47164961902022168 0 -0.47051884661882082 -0.49999999999999961 0 -0.46932161335163602 -0.48522058863877299 0 -0.47051884661882082 -0.49999999999999961 0 -0.45791123503500519 -0.49999999999999978 0 -0.45791123503500519 -0.49999999999999978 0 -0.45914749306392538 -0.47523830869920952 0 -0.45168500412697821 -0.48448331782380499 0 -0.45791123503500519 -0.49999999999999978 0 -0.46583550408851959 -0.47881808528120312 0 -0.45914749306392538 -0.47523830869920952 0 -0.46932161335163602 -0.48522058863877299 0 -0.45791123503500519 -0.49999999999999978 0 -0.46583550408851959 -0.47881808528120312 0 -0.45791123503500519 -0.49999999999999978 0 -0.45914749306392538 -0.47523830869920952 0 -0.47034729599720648 -0.47674824172495878 0 -0.46932161335163602 -0.48522058863877299 0 -0.46583550408851959 -0.47881808528120312 0 -0.47034729599720648 -0.47674824172495878 0 -0.46583550408851959 -0.47881808528120312 0 -0.46688094282658948 -0.47130467395963749 0 -0.46583550408851959 -0.47881808528120312 0 -0.46688094282658948 -0.47130467395963749 0 -0.45914749306392538 -0.47523830869920952 0 -0.45914749306392538 -0.47523830869920952 0 -0.44776695660416321 -0.47607459961746418 0 -0.45168500412697821 -0.48448331782380499 0 -0.44776695660416321 -0.47607459961746418 0 -0.44231314406066119 -0.48308749030040421 0 -0.45168500412697821 -0.48448331782380499 0 -0.45914749306392538 -0.47523830869920952 0 -0.44776695660416321 -0.47607459961746418 0 -0.44504538444096942 -0.46395024046350369 0 -0.44087353757794151 -0.47368507428098872 0 -0.44231314406066119 -0.48308749030040421 0 -0.43098043943570058 -0.47243990825636101 0 -0.44087353757794151 -0.47368507428098872 0 -0.44504538444096942 -0.46395024046350369 0 -0.43098043943570058 -0.47243990825636101 0 -0.44776695660416321 -0.47607459961746418 0 -0.44087353757794151 -0.47368507428098872 0 -0.44504538444096942 -0.46395024046350369 0 -0.44776695660416321 -0.47607459961746418 0 -0.44087353757794151 -0.47368507428098872 0 -0.44231314406066119 -0.48308749030040421 0 -0.44231314406066119 -0.48308749030040421 0 -0.44328331739940291 -0.5 0 -0.42931612523408968 -0.48705982495043909 0 -0.44231314406066119 -0.48308749030040421 0 -0.44328331739940291 -0.5 0 -0.44906630850436602 -0.49122840637136578 0 -0.45791123503500519 -0.49999999999999978 0 -0.44328331739940291 -0.5 0 -0.44906630850436602 -0.49122840637136578 0 -0.44231314406066119 -0.48308749030040421 0 -0.44906630850436602 -0.49122840637136578 0 -0.45168500412697821 -0.48448331782380499 0 -0.45791123503500519 -0.49999999999999978 0 -0.44906630850436602 -0.49122840637136578 0 -0.45168500412697821 -0.48448331782380499 0 -0.44258871915738701 -0.44548552116841489 0 -0.44504538444096942 -0.46395024046350369 0 -0.43136726259802988 -0.45717283268494507 0 -0.44258871915738701 -0.44548552116841489 0 -0.44504538444096942 -0.46395024046350369 0 -0.46038375109284579 -0.45082571239715019 0 -0.45914749306392538 -0.47523830869920952 0 -0.44504538444096942 -0.46395024046350369 0 -0.46038375109284579 -0.45082571239715019 0 -0.45914749306392538 -0.47523830869920952 0 -0.46038375109284579 -0.45082571239715019 0 -0.46688094282658948 -0.47130467395963749 0 -0.45914749306392538 -0.47523830869920952 0 -0.46038375109284579 -0.45082571239715019 0 -0.46688094282658948 -0.47130467395963749 0 -0.46038375109284579 -0.45082571239715019 0 -0.4776107336913642 -0.44777326724157229 0 -0.46038375109284579 -0.45082571239715019 0 -0.46162000912176598 -0.42641311609509103 0 -0.44258871915738701 -0.44548552116841489 0 -0.46038375109284579 -0.45082571239715019 0 -0.46162000912176598 -0.42641311609509103 0 -0.46038375109284579 -0.45082571239715019 0 -0.4776107336913642 -0.44777326724157229 0 -0.47356531390935802 -0.43338152747819048 0 -0.47935112372208111 -0.47164961902022168 0 -0.4776107336913642 -0.44777326724157229 0 -0.48818340082534162 -0.44329923804044391 0 -0.47935112372208111 -0.47164961902022168 0 -0.48818340082534162 -0.44329923804044391 0 -0.47935112372208111 -0.47164961902022168 0 -0.46688094282658948 -0.47130467395963749 0 -0.4776107336913642 -0.44777326724157229 0 -0.46688094282658948 -0.47130467395963749 0 -0.4776107336913642 -0.44777326724157229 0 -0.4776107336913642 -0.44777326724157229 0 -0.48818340082534162 -0.44329923804044391 0 -0.48834052455613869 -0.42424186052350721 0 -0.48818340082534162 -0.44329923804044391 0 -0.48834052455613869 -0.42424186052350721 0 -0.4990703154209134 -0.40071045380544212 0 -0.48834052455613869 -0.42424186052350721 0 -0.48115559446645628 -0.40675371970654572 0 -0.4990703154209134 -0.40071045380544212 0 -0.48834052455613869 -0.42424186052350721 0 -0.4990703154209134 -0.40071045380544212 0 -0.48834052455613869 -0.42424186052350721 0 -0.48115559446645628 -0.40675371970654572 0 -0.47524353803526398 -0.41899718524158258 0 -0.48115559446645628 -0.40675371970654572 0 -0.47524353803526398 -0.41899718524158258 0 -0.46285626715068628 -0.40200051979303192 0 -0.4776107336913642 -0.44777326724157229 0 -0.48834052455613869 -0.42424186052350721 0 -0.47524353803526398 -0.41899718524158258 0 -0.47356531390935802 -0.43338152747819048 0 -0.46162000912176598 -0.42641311609509103 0 -0.4776107336913642 -0.44777326724157229 0 -0.48834052455613869 -0.42424186052350721 0 -0.47356531390935802 -0.43338152747819048 0 -0.48834052455613869 -0.42424186052350721 0 -0.47524353803526398 -0.41899718524158258 0 -0.47356531390935802 -0.43338152747819048 0 -0.4990703154209134 -0.40071045380544212 0 -0.48406698010789773 -0.38678406164518703 0 -0.49086363292701191 -0.35764769076275388 0 -0.48115559446645628 -0.40675371970654572 0 -0.4990703154209134 -0.40071045380544212 0 -0.48406698010789773 -0.38678406164518703 0 -0.48115559446645628 -0.40675371970654572 0 -0.4744255284996482 -0.39506191926861001 0 -0.48406698010789773 -0.38678406164518703 0 -0.48115559446645628 -0.40675371970654572 0 -0.4744255284996482 -0.39506191926861001 0 -0.46285626715068628 -0.40200051979303192 0 -0.48406698010789773 -0.38678406164518703 0 -0.46409252517960659 -0.37758792349097281 0 -0.47653428035749562 -0.36982386218039282 0 -0.4744255284996482 -0.39506191926861001 0 -0.48406698010789773 -0.38678406164518703 0 -0.46409252517960659 -0.37758792349097281 0 -0.46409252517960659 -0.37758792349097281 0 -0.46285626715068628 -0.40200051979303192 0 -0.46409252517960659 -0.37758792349097281 0 -0.46285626715068628 -0.40200051979303192 0 -0.44197676278456638 -0.39029084053029051 0 -0.4744255284996482 -0.39506191926861001 0 -0.46409252517960659 -0.37758792349097281 0 -0.46285626715068628 -0.40200051979303192 0 -0.44197676278456638 -0.39029084053029051 0 -0.44850748528764461 -0.41236719398341609 0 -0.43065002936645219 -0.41065231215666831 0 -0.46285626715068628 -0.40200051979303192 0 -0.44197676278456638 -0.39029084053029051 0 -0.44850748528764461 -0.41236719398341609 0 -0.46409252517960659 -0.37758792349097281 0 -0.44197676278456638 -0.39029084053029051 0 -0.45056051596692748 -0.36986698520627831 0 -0.44197676278456638 -0.39029084053029051 0 -0.45056051596692748 -0.36986698520627831 0 -0.43305390688792023 -0.36860286557078847 0 -0.46038375109284579 -0.45082571239715019 0 -0.47356531390935802 -0.43338152747819048 0 -0.46162000912176598 -0.42641311609509103 0 -0.47524353803526398 -0.41899718524158258 0 -0.46285626715068628 -0.40200051979303192 0 -0.46162000912176598 -0.42641311609509103 0 -0.46285626715068628 -0.40200051979303192 0 -0.46162000912176598 -0.42641311609509103 0 -0.46285626715068628 -0.40200051979303192 0 -0.46162000912176598 -0.42641311609509103 0 -0.44850748528764461 -0.41236719398341609 0 -0.44850748528764461 -0.41236719398341609 0 -0.43646851721348018 -0.42653250308672092 0 -0.43065002936645219 -0.41065231215666831 0 -0.46162000912176598 -0.42641311609509103 0 -0.44850748528764461 -0.41236719398341609 0 -0.43646851721348018 -0.42653250308672092 0 -0.44258871915738701 -0.44548552116841489 0 -0.46162000912176598 -0.42641311609509103 0 -0.43646851721348018 -0.42653250308672092 0 -0.43646851721348018 -0.42653250308672092 0 -0.41235978321250499 -0.42095724657865857 0 -0.42121719363486132 -0.44208073723489361 0 -0.43646851721348018 -0.42653250308672092 0 -0.43065002936645219 -0.41065231215666831 0 -0.41235978321250499 -0.42095724657865857 0 -0.41235978321250499 -0.42095724657865857 0 -0.41562362519132712 -0.4067692603550504 0 -0.39882217473961967 -0.4085590504698548 0 -0.43065002936645219 -0.41065231215666831 0 -0.41235978321250499 -0.42095724657865857 0 -0.41562362519132712 -0.4067692603550504 0 -0.41235978321250499 -0.42095724657865857 0 -0.39984566811233568 -0.43867595330137221 0 -0.42121719363486132 -0.44208073723489361 0 -0.44197676278456638 -0.39029084053029051 0 -0.41797980184918471 -0.38039442721806083 0 -0.43305390688792023 -0.36860286557078847 0 -0.44197676278456638 -0.39029084053029051 0 -0.42261836819082937 -0.39702232197660309 0 -0.41797980184918471 -0.38039442721806083 0 -0.44197676278456638 -0.39029084053029051 0 -0.43065002936645219 -0.41065231215666831 0 -0.42261836819082937 -0.39702232197660309 0 -0.43065002936645219 -0.41065231215666831 0 -0.41562362519132712 -0
[...]
<PointData Scalars="" Vectors="displacement," Tensors="">
<DataArray type="Float64" Name="displacement" NumberOfComponents="3" format="ascii">
-5.6069548392554963e-07 -0.034998618001353232 0 -3.4837491753997717e-05 -0.033565772168591114 0 -3.3936477449016416e-06 -0.031414293508813453 0 -5.6069548392554963e-07 -0.034998618001353232 0 -3.3936477449016416e-06 -0.031414293508813453 0 8.6972430689976497e-07 -0.028053949504876233 0 -0.00059145424076646541 -0.032612369858563459 0 -0.00048695419923078768 -0.033096816134371286 0 -0.00031005784662916519 -0.033782312322437627 0 -0.00059145424076646541 -0.032612369858563459 0 -0.00048695419923078768 -0.033096816134371286 0 -0.00059491633016157952 -0.032713237088729759 0 -0.00059145424076646541 -0.032612369858563459 0 -0.00031005784662916519 -0.033782312322437627 0 -3.9287414599830578e-07 -0.034998321618165018 0 -0.00027961309517595518 -0.033077315422774076 0 4.6999036387669835e-08 -0.034999308796102774 0 -5.6069548392554963e-07 -0.034998618001353232 0 -3.4837491753997717e-05 -0.033565772168591114 0 2.5876038736779314e-07 -0.034999096931888282 0 -0.00031005784662916519 -0.033782312322437627 0 -3.9287414599830578e-07 -0.034998321618165018 0 3.2823946899641541e-08 -0.034999045753122474 0 -1.3701389429544228e-07 -0.034999127612534445 0 0.00022223281782457975 -0.033438103130507268 0 0.00010177503539815414 -0.034133145896417701 0 3.2823946899641541e-08 -0.034999045753122474 0 -0.00043978684168222121 -0.03326486587739249 0 -0.00051763486416268997 -0.032940869899591552 0 -0.00031005784662916519 -0.033782312322437627 0 3.2823946899641541e-08 -0.034999045753122474 0 -0.00043978684168222121 -0.03326486587739249 0 -5.3579311021364286e-05 -0.034633100698067847 0 -0.0001594953896907481 -0.033249541807829852 0 -0.00048695419923078768 -0.033096816134371286 0 -0.00031005784662916519 -0.033782312322437627 0 -0.00043978684168222121 -0.03326486587739249 0 -0.00048695419923078768 -0.033096816134371286 0 -0.00043978684168222121 -0.03326486587739249 0 -0.00059491633016157952 -0.032713237088729759 0 -0.00043978684168222121 -0.03326486587739249 0 -0.00059491633016157952 -0.032713237088729759 0 -0.00051763486416268997 -0.032940869899591552 0 0.00022223281782457975 -0.033438103130507268 0 0.00021791621471386633 -0.033769483581691427 0 0.00010177503539815414 -0.034133145896417701 0 0.00021791621471386633 -0.033769483581691427 0 8.1733205822151652e-05 -0.03423551042810738 0 0.00010177503539815414 -0.034133145896417701 0 0.00022223281782457975 -0.033438103130507268 0 0.00021791621471386633 -0.033769483581691427 0 0.00054804780104504396 -0.033206053037847662 0 0.00025933758685286432 -0.033839115373668273 0 8.1733205822151652e-05 -0.03423551042810738 0 0.00023630391078337089 -0.034106569144453876 0 0.00025933758685286432 -0.033839115373668273 0 0.00054804780104504396 -0.033206053037847662 0 0.00023630391078337089 -0.034106569144453876 0 0.00021791621471386633 -0.033769483581691427 0 0.00025933758685286432 -0.033839115373668273 0 0.00054804780104504396 -0.033206053037847662 0 0.00021791621471386633 -0.033769483581691427 0 0.00025933758685286432 -0.033839115373668273 0 8.1733205822151652e-05 -0.03423551042810738 0 8.1733205822151652e-05 -0.03423551042810738 0 1.1919337741479931e-08 -0.034999006285499311 0 1.4608167377854847e-05 -0.03460112854472381 0 8.1733205822151652e-05 -0.03423551042810738 0 1.1919337741479931e-08 -0.034999006285499311 0 3.8071519153972465e-05 -0.034540973364033944 0 -1.3701389429544228e-07 -0.034999127612534445 0 1.1919337741479931e-08 -0.034999006285499311 0 3.8071519153972465e-05 -0.034540973364033944 0 8.1733205822151652e-05 -0.03423551042810738 0 3.8071519153972465e-05 -0.034540973364033944 0 0.00010177503539815414 -0.034133145896417701 0 -1.3701389429544228e-07 -0.034999127612534445 0 3.8071519153972465e-05 -0.034540973364033944 0 0.00010177503539815414 -0.034133145896417701 0 0.0012576368130196016 -0.032062382066769 0 0.00054804780104504396 -0.033206053037847662 0 0.00068511439792406416 -0.033562882986952598 0 0.0012576368130196016 -0.032062382066769 0 0.00054804780104504396 -0.033206053037847662 0 0.0010361770417251924 -0.032167335686645621 0 0.00022223281782457975 -0.033438103130507268 0 0.00054804780104504396 -0.033206053037847662 0 0.0010361770417251924 -0.032167335686645621 0 -0.0001594953896907481 -0.033249541807829852 0 8.3544783972261524e-05 -0.031661852627041825 0 -0.00059491633016157952 -0.032713237088729759 0 -0.00051763486416268997 -0.032940869899591552 0 -0.00079391284279481205 -0.031090246173794446 0 -0.00059491633016157952 -0.032713237088729759 0 -0.00079391284279481205 -0.031090246173794446 0 -0.00083323260652914683 -0.030252245735035967 0 8.3544783972261524e-05 -0.031661852627041825 0 0.00013914501514183348 -0.030440812885690147 0 0.0012576368130196016 -0.032062382066769 0 0.0010361770417251924 -0.032167335686645621 0 0.0007070909182951275 -0.031175770292846551 0 -0.00079391284279481205 -0.031090246173794446 0 -0.00083323260652914683 -0.030252245735035967 0 -0.00054261664176706071 -0.029740044528630098 0 -0.00059145424076646541 -0.032612369858563459 0 -6.3762288065317562e-05 -0.032009559751688323 0 -3.3936477449016416e-06 -0.031414293508813453 0 -0.00027961309517595518 -0.033077315422774076 0 -4.6135994054911246e-05 -0.031657434079360981 0 -0.00059145424076646541 -0.032612369858563459 0 -0.00059491633016157952 -0.032713237088729759 0 -6.3762288065317562e-05 -0.032009559751688323 0 -0.00055709840341401022 -0.03241097050716734 0 -0.00040624337848644843 -0.031144475893843455 0 -6.3762288065317562e-05 -0.032009559751688323 0 -3.3936477449016416e-06 -0.031414293508813453 0 5.2323572117494737e-05 -0.030208690129175306 0 -3.3936477449016416e-06 -0.031414293508813453 0 5.2323572117494737e-05 -0.030208690129175306 0 8.6972430689976497e-07 -0.028053949504876233 0 -0.00041538340414355284 -0.028756563923810978 0 -0.0001594476326880959 -0.028474822126178995 0 2.5839110410582285e-07 -0.02804969006322116 0 -0.00023394385510126301 -0.029491005346854771 0 -1.6934128487161775e-05 -0.028310183423925248 0 -0.00041538340414355284 -0.028756563923810978 0 -0.0001594476326880959 -0.028474822126178995 0 -0.00032580503202260682 -0.029083343149226764 0 -0.0001594476326880959 -0.028474822126178995 0 -0.00032580503202260682 -0.029083343149226764 0 -0.00018449744753341586 -0.028720277884928584 0 -0.00040624337848644843 -0.031144475893843455 0 -0.00023394385510126301 -0.029491005346854771 0 -0.00032580503202260682 -0.029083343149226764 0 -0.00054261664176706071 -0.029740044528630098 0 -0.00041871884975139463 -0.029714877205261576 0 -0.00083323260652914683 -0.030252245735035967 0 -0.00041538340414355284 -0.028756563923810978 0 -0.00054261664176706071 -0.029740044528630098 0 -0.00041538340414355284 -0.028756563923810978 0 -0.00032580503202260682 -0.029083343149226764 0 -0.00054261664176706071 -0.029740044528630098 0 2.5839110410582285e-07 -0.02804969006322116 0 -4.982987133457242e-05 -0.027541182347164926 0 0.00024088466972988404 -0.025262133595281462 0 -0.0001594476326880959 -0.028474822126178995 0 2.5839110410582285e-07 -0.02804969006322116 0 -4.982987133457242e-05 -0.027541182347164926 0 -0.0001594476326880959 -0.028474822126178995 0 -0.00013476057912342637 -0.028237217790322663 0 -4.982987133457242e-05 -0.027541182347164926 0 -0.0001594476326880959 -0.028474822126178995 0 -0.00013476057912342637 -0.028237217790322663 0 -0.00018449744753341586 -0.028720277884928584 0 -4.982987133457242e-05 -0.027541182347164926 0 0.00016716906472903832 -0.028331863201765041 0 0.00019007902973590266 -0.027226429928042445 0 -0.00013476057912342637 -0.028237217790322663 0 -4.982987133457242e-05 -0.027541182347164926 0 0.00016716906472903832 -0.028331863201765041 0 0.00022262857570527189 -0.028512343537109585 0 7.7614276404283514e-05 -0.029267870344015672 0 0.00016716906472903832 -0.028331863201765041 0 0.00023176797283284024 -0.029802775355466046 0 0.00025564927536161978 -0.02941063235487517 0 -0.00013476057912342637 -0.028237217790322663 0 0.00016716906472903832 -0.028331863201765041 0 -0.00018449744753341586 -0.028720277884928584 0 0.00025564927536161978 -0.02941063235487517 0 0.00037174424469842946 -0.030281624833695422 0 0.00034999543344466604 -0.030050584758636801 0 0.00023176797283284024 -0.029802775355466046 0 0.00025564927536161978 -0.02941063235487517 0 0.00037174424469842946 -0.030281624833695422 0 0.00016716906472903832 -0.028331863201765041 0 0.00025564927536161978 -0.02941063235487517 0 0.00051742540801242925 -0.028642105606471624 0 0.00025564927536161978 -0.02941063235487517 0 0.00051742540801242925 -0.028642105606471624 0 0.00064028386618806123 -0.028926214265163615 0 -0.00079391284279481205 -0.031090246173794446 0 -0.00054261664176706071 -0.029740044528630098 0 -0.00041871884975139463 -0.029714877205261576 0 -0.00032580503202260682 -0.029083343149226764 0 -0.00018449744753341586 -0.028720277884928584 0 -0.00041871884975139463 -0.029714877205261576 0 7.7614276404283514e-05 -0.029267870344015672 0 0.00013914501514183348 -0.030440812885690147 0 0.00023176797283284024 -0.029802775355466046 0 0.0007070909182951275 -0.031175770292846551 0 0.00037174424469842946 -0.030281624833695422 0 0.00037174424469842946 -0.030281624833695422 0 0.00059866856781313539 -0.03072117258112711 0 0.00034999543344466604 -0.030050584758636801 0 0.0007070909182951275 -0.031175770292846551 0 0.00037174424469842946 -0.030281624833695422 0 0.00059866856781313539 -0.03072117258112711 0 0.0012576368130196016 -0.032062382066769 0 0.0007070909182951275 -0.031175770292846551 0 0.00059866856781313539 -0.03072117258112711 0 0.00059866856781313539 -0.03072117258112711 0 0.00054422236921048816 -0.029797281660657857 0 0.0011861890584283974 -0.030207879024422395 0 0.00059866856781313539 -0.03072117258112711 0 0.00034999543344466604 -0.030050584758636801 0 0.00054422236921048816 -0.029797281660657857 0 0.00054422236921048816 -0.029797281660657857 0 0.00034876721168120549 -0.029727305241124064 0 0.00041043583115749988 -0.029576342725438149 0 0.00034999543344466604 -0.030050584758636801 0 0.00054422236921048816 -0.029797281660657857 0 0.00034876721168120549 -0.029727305241124064 0 0.00054422236921048816 -0.029797281660657857 0 0.00094864628445930934 -0.02960731093863533 0 0.0011861890584283974 -0.030207879024422395 0 0.00025564927536161978 -0.02941063235487517 0 0.00058621603138411978 -0.029236459392500858 0 0.00064028386618806123 -0.028926214265163615 0 0.00025564927536161978 -0.02941063235487517 0 0.00032223330954084641 -0.029593785020748026 0 0.00058621603138411978 -0.029236459392500858 0 0.00025564927536161978 -0.02941063235487517 0 0.00034999543344466604 -0.030050584758636801 0 0.00032223330954084641 -0.029593785020748026 0 0.00034999543344466604 -0.030050584758636801 0 0.00034876721168120549 -0.029727305241124064 0 0.00032223330954084641 -0.029593785020748026 0 0.00034876721168120549 -0.029727305241124064 0 0.00030341191357955723 -0.029632689363474341 0 0.00041043583115749988 -0.029576342725438149 0 0.00034876721168120549 -0.029727305241124064 0 0.00032223330954084641 -0.029593785020748026 0 0.00030341191357955723 -0.029632689363474341 0 0.00032223330954084641 -0.029593785020748026 0 0.00030341191357955723 -0.029632689363474341 0 0.00058621603138411978 -0.029236459392500858 0 0.00030341191357955723 -0.029632689363474341 0 0.00058621603138411978 -0.029236459392500858 0 0.00055171514061988947 -0.029819259587366805 0 0.00061270750322494889 -0.029231251682040958 0 0.00062869403300254369 -0.029390490452936052 0 0.00075828514196637847 -0.028877575975054939 0 0.00070691276783359334 -0.028904323224960993 0 0.00075761284291934159 -0.028873881609661423 0 0.00058621603138411978 -0.029236459392500858 0 0.00075828514196637847 -0.028877575975054939 0 0.00070691276783359334 -0.028904323224960993 0 0.00030341191357955723 -0.029632689363474341 0 0.00055171514061988947 -0.029819259587366805 0 0.00018052748418956994 -0.030048855684614517 0 0.00030341191357955723 -0.029632689363474341 0 0.00036796572679949601 -0.029433511434889537 0 0.00041043583115749988 -0.029576342725438149 0 0.00026116097710263516 -0.029792670710322787 0 0.00035420444192364498 -0.029347037278572331 0 0.00018052748418956994 -0.030048855684614517 0 0.00046797571943125706 -0.030239052707977727 0 4.3747841655631582e-05 -0.030494132820682342 0 0.00055171514061988947 -0.029819259587366805 0 0.00018052748418956994 -0.030048855684614517 0 0.00046797571943125706 -0.030239052707977727 0 0.00067416540026936779 -0.028936055304598102 0 0.00075761284291934159 -0.028873881609661423 0 0.00077339217730988067 -0.02900385039901662 0 0.00062869403300254369 -0.029390490452936052 0 0.00061005818972185999 -0.029407745687672151 0 0.00075828514196637847 -0.028877575975054939 0 0.00067416540026936779 -0.028936055304598102 0 0.00075761284291934159 -0.028873881609661423 0 0.00054422236921048816 -0.029797281660657857 0 0.00060134991414482629 -0.02950204777402405 0 0.00094864628445930934 -0.02960731093863533 0 0.00054422236921048816 -0.029797281660657857 0 0.00041043583115749988 -0.029576342725438149 0 0.00060134991414482629 -0.02950204777402405 0 0.00036796572679949601 -0.029433511434889537 0 0.00041043583115749988 -0.029576342725438149 0 0.00060134991414482629 -0.02950204777402405 0 0.00036796572679949601 -0.029433511434889537 0 0.00060134991414482629 -0.02950204777402405 0 0.00055927221641749068 -0.029362030676169215 0 0.00035420444192364498 -0.029347037278572331 0 0.00020759567926882343 -0.031771996940178883 0 0.00036796572679949601 -0.029433511434889537 0 0.00055927221641749068 -0.029362030676169215 0 0.00045748371584838828 -0.029174071054123663 0 0.00034463997605346049 -0.033522263301260485 0 0.0012946001430457733 -0.032155426383846039 0 0.00060134991414482629 -0.02950204777402405 0 0.00081663198863750179 -0.029332128294261881 0 0.00094864628445930934 -0.02960731093863533 0 0.00060134991414482629 -0.02950204777402405 0 0.00055927221641749068 -0.029362030676169215 0 0.00081663198863750179 -0.029332128294261881 0 0.0016166658904750023 -0.035808486678381886 0 0.0015261805277582711 -0.035033861922306092 0 0.00092976999949131881 -0.035459310380291736 0 1.7097382316387684e-05 -0.034942933400090248 0 8.3447918447184465e-05 -0.034978064365919902 0 6.6173745138325274e-05 -0.034925954510236855 0 0.00034463997605346049 -0.033522263301260485 0 0.0006967789653028317 -0.03541553143337136 0 0.0015261805277582711 -0.035033861922306092 0 0.00093183360355853038 -0.034873032035385186 0 0.00092976999949131881 -0.035459310380291736 0 0.00093183360355853038 -0.034873032035385186 0 0.00092976999949131881 -0.035459310380291736 0 0.00016840338676447458 -0.035004234429573823 0 0.0006967789653028317 -0.03541553143337136 0 0.00011052117426996663 -0.034967400940784051 0 8.3447918447184465e-05 -0.034978064365919902 0 8.7109648385437377e-05 -0.03497964831941517 0 6.6173745138325274e-05 -0.034925954510236855 0 8.3447918447184465e-05 -0.034978064365919902 0 8.7109648385437377e-05 -0.03497964831941517 0 0.00016840338676447458 -0.035004234429573823 0 8.7109648385437377e-05 -0.03497964831941517 0 8.2179669708737219e-08 -0.035000040551096484 0 3.5058801192952296e-05 -0.034969192410907027 0 8.7109648385437377e-05 -0.03497964831941517 0 8.2179669708737219e-08 -0.035000040551096484 0 3.1927592124758591e-09 -0.034999985122802377 0 8.2179669708737219e-08 -0.035000040551096484 0 3.5058801192952296e-05 -0.034969192410907027 0 -1.1899539224519115e-07 -0.034999546549362645 0 3.5058801192952296e-05 -0.034969192410907027 0 0.00016840338676447458 -0.035004234429573823 0 7.9508116360650334e-05 -0.034724789619481077 0 8.7109648385437377e-05 -0.03497964831941517 0 3.5058801192952296e-05 -0.034969192410907027 0 0.00016840338676447458 -0.035004234429573823 0 0.00016840338676447458 -0.035004234429573823 0 7.9508116360650334e-05 -0.034724789619481077 0 0.00051134733496223806 -0.034444596078059893 0 7.9508116360650334e-05 -0.034724789619481077 0 0.00023630391078337089 -0.034106569144453876 0 0.00051134733496223806 -0.034444596078059893 0 7.9508116360650334e-05 -0.034724789619481077 0 -1.1899539224519115e-07 -0.034999546549362645 0 1.4608167377854847e-05 -0.03460112854472381 0 3.5058801192952296e-05 -0.034969192410907027 0 7.9508116360650334e-05 -0.034724789619481077 0 -1.1899539224519115e-07 -0.034999546549362645 0 1.1919337741479931e-08 -0.034999006285499311 0 -1.1899539224519115e-07 -0.034999546549362645 0 1.4608167377854847e-05 -0.03460112854472381 0 7.9508116360650334e-05 -0.034724789619481077 0 1.4608167377854847e-05 -0.03460112854472381 0 0.00023630391078337089 -0.034106569144453876 0 8.1733205822151652e-05 -0.03423551042810738 0 1.4608167377854847e-05 -0.03460112854472381 0 0.00023630391078337089 -0.034106569144453876 0 0.00054804780104504396 -0.033206053037847662 0 0.00023630391078337089 -0.034106569144453876 0 0.00068511439792406416 -0.033562882986952598 0 0.00068511439792406416 -0.033562882986952598 0 0.0015528149295094809 -0.034163381977680513 0 0.00051134733496223806 -0.034444596078059893 0 0.00023630391078337089 -0.034106569144453876 0 0.00068511439792406416 -0.033562882986952598 0 0.00051134733496223806 -0.034444596078059893 0 0.0012576368130196016 -0.032062382066769 0 0.00059866856781313539 -0.03072117258112711 0 0.0011861890584283974 -0.030207879024422395 0 0.0012576368130196016 -0.032062382066769 0 0.00068511439792406416 -0.033562882986952598 0 0.0015528149295094809 -0.034163381977680513 0 0.0012814576093006288 -0.03203953707220069 0 0.0013364026596168852 -0.032212425224317852 0 0.00093183360355853038 -0.034873032035385186 0 0.0015528149295094809 -0.034163381977680513 0 0.00051134733496223806 -0.034444596078059893 0 0.0015261805277582711 -0.035033861922306092 0 0.00093183360355853038 -0.034873032035385186 0 0.0015528149295094809 -0.034163381977680513 0 0.0012946001430457733 -0.032155426383846039 0 0.0013364026596168852 -0.032212425224317852 0 0.00093183360355853038 -0.034873032035385186 0 0.00016840338676447458 -0.035004234429573823 0 0.00051134733496223806 -0.034444596078059893 0 -0.00014696744630914138 -0.019180919685328233 0 -0.00027523336755718011 -0.020665868054978768 0 -3.3497560163543822e-07 -0.023055604311113722 0 -0.00014696744630914138 -0.019180919685328233 0 -3.3497560163543822e-07 -0.023055604311113722 0 1.162683155894696e-06 -0.017032743799231372 0 0.00021553212323021455 -0.021106581564936173 0 0.00028577167266594192 -0.020466135476002557 0 0.00083288072845860684 -0.020764165144711626 0 0.00021553212323021455 -0.021106581564936173 0 -0.00013145418217941823 -0.020703062133669205 0 -0.00039425060797448316 -0.020986842592724979 0 0.0037246262484096049 -0.025598239896163191 0 0.0022619810923012627 -0.026053850989667175 0 0.0027016759799806224 -0.026772606557845229 0 0.0020447585689696373 -0.023676362824643075 0 0.00082683002909428327 -0.023190306422134571 0 -0.00013145418217941823 -0.020703062133669205 0 -0.00012619205299451084 -0.020120456057411473 0 -0.00032641517379712143 -0.020747440250112301 0 -0.00013145418217941823 -0.020703062133669205 0 -0.00032641517379712143 -0.020747440250112301 0 -0.00039425060797448316 -0.020986842592724979 0 0.00028577167266594192 -0.020466135476002557 0 0.00020794557025702109 -0.019614732056762774 0 -0.00012619205299451084 -0.020120456057411473 0 0.00021553212323021455 -0.021106581564936173 0 -0.00013145418217941823 -0.020703062133669205 0 0.00028577167266594192 -0.020466135476002557 0 -0.00013145418217941823 -0.020703062133669205 0 0.00028577167266594192 -0.020466135476002557 0 -0.00012619205299451084 -0.020120456057411473 0 0.00028577167266594192 -0.020466135476002557 0 0.00020794557025702109 -0.019614732056762774 0 0.0011318240885122551 -0.02013155451271317 0 0.00020794557025702109 -0.019614732056762774 0 -0.00014696744630914138 -0.019180919685328233 0 -0.00012619205299451084 -0.020120456057411473 0 0.00020794557025702109 -0.019614732056762774 0 -0.00014696744630914138 -0.019180919685328233 0 0.00017765580699697313 -0.018330708688844 0 -0.00014696744630914138 -0.019180919685328233 0 1.162683155894696e-06 