<?xml version="1.0"?>
<VTKFile type="UnstructuredGrid" version="0.1" byte_order="LittleEndian">
<UnstructuredGrid>
<Piece NumberOfPoints="29363" NumberOfCells="10318">
<Points>
<DataArray type="Float64" NumberOfComponents="3" format="ascii">
-0.5 -0.5 0 -0.47935112372208111 -0.47164961902022168 0 -0.48818340082534162 -0.44329923804044391 0 -0.5 -0.5 0 -0.48818340082534162 -0.44329923804044391 0 -0.4990703154209134 -0.40071045380544212 0 -0.47935112372208111 -0.47164961902022168 0 -0.47034729599720648 -0.47674824172495878 0 -0.46932161335163602 -0.48522058863877299 0 -0.47935112372208111 -0.47164961902022168 0 -0.47034729599720648 -0.47674824172495878 0 -0.46688094282658948 -0.47130467395963749 0 -0.47935112372208111 -0.47164961902022168 0 -0.46932161335163602 -0.48522058863877299 0 -0.47051884661882082 -0.49999999999999961 0 -0.47935112372208111 -0.47164961902022168 0 -0.47051884661882082 -0.49999999999999961 0 -0.5 -0.5 0 -0.47935112372208111 -0.47164961902022168 0 -0.47051884661882082 -0.49999999999999961 0 -0.46932161335163602 -0.48522058863877299 0 -0.47051884661882082 -0.49999999999999961 0 -0.45791123503500519 -0.49999999999999978 0 -0.45791123503500519 -0.49999999999999978 0 -0.45914749306392538 -0.47523830869920952 0 -0.45168500412697821 -0.48448331782380499 0 -0.45791123503500519 -0.49999999999999978 0 -0.46583550408851959 -0.47881808528120312 0 -0.45914749306392538 -0.47523830869920952 0 -0.46932161335163602 -0.48522058863877299 0 -0.45791123503500519 -0.49999999999999978 0 -0.46583550408851959 -0.47881808528120312 0 -0.45791123503500519 -0.49999999999999978 0 -0.45914749306392538 -0.47523830869920952 0 -0.47034729599720648 -0.47674824172495878 0 -0.46932161335163602 -0.48522058863877299 0 -0.46583550408851959 -0.47881808528120312 0 -0.47034729599720648 -0.47674824172495878 0 -0.46583550408851959 -0.47881808528120312 0 -0.46688094282658948 -0.47130467395963749 0 -0.46583550408851959 -0.47881808528120312 0 -0.46688094282658948 -0.47130467395963749 0 -0.45914749306392538 -0.47523830869920952 0 -0.45914749306392538 -0.47523830869920952 0 -0.44776695660416321 -0.47607459961746418 0 -0.45168500412697821 -0.48448331782380499 0 -0.44776695660416321 -0.47607459961746418 0 -0.44231314406066119 -0.48308749030040421 0 -0.45168500412697821 -0.48448331782380499 0 -0.45914749306392538 -0.47523830869920952 0 -0.44776695660416321 -0.47607459961746418 0 -0.44504538444096942 -0.46395024046350369 0 -0.44087353757794151 -0.47368507428098872 0 -0.44231314406066119 -0.48308749030040421 0 -0.43098043943570058 -0.47243990825636101 0 -0.44087353757794151 -0.47368507428098872 0 -0.44504538444096942 -0.46395024046350369 0 -0.43098043943570058 -0.47243990825636101 0 -0.44776695660416321 -0.47607459961746418 0 -0.44087353757794151 -0.47368507428098872 0 -0.44504538444096942 -0.46395024046350369 0 -0.44776695660416321 -0.47607459961746418 0 -0.44087353757794151 -0.47368507428098872 0 -0.44231314406066119 -0.48308749030040421 0 -0.44231314406066119 -0.48308749030040421 0 -0.44328331739940291 -0.5 0 -0.42931612523408968 -0.48705982495043909 0 -0.44231314406066119 -0.48308749030040421 0 -0.44328331739940291 -0.5 0 -0.44906630850436602 -0.49122840637136578 0 -0.45791123503500519 -0.49999999999999978 0 -0.44328331739940291 -0.5 0 -0.44906630850436602 -0.49122840637136578 0 -0.44231314406066119 -0.48308749030040421 0 -0.44906630850436602 -0.49122840637136578 0 -0.45168500412697821 -0.48448331782380499 0 -0.45791123503500519 -0.49999999999999978 0 -0.44906630850436602 -0.49122840637136578 0 -0.45168500412697821 -0.48448331782380499 0 -0.44258871915738701 -0.44548552116841489 0 -0.44504538444096942 -0.46395024046350369 0 -0.43136726259802988 -0.45717283268494507 0 -0.44258871915738701 -0.44548552116841489 0 -0.44504538444096942 -0.46395024046350369 0 -0.46038375109284579 -0.45082571239715019 0 -0.45914749306392538 -0.47523830869920952 0 -0.44504538444096942 -0.46395024046350369 0 -0.46038375109284579 -0.45082571239715019 0 -0.45914749306392538 -0.47523830869920952 0 -0.46038375109284579 -0.45082571239715019 0 -0.46688094282658948 -0.47130467395963749 0 -0.45914749306392538 -0.47523830869920952 0 -0.46038375109284579 -0.45082571239715019 0 -0.46688094282658948 -0.47130467395963749 0 -0.46038375109284579 -0.45082571239715019 0 -0.4776107336913642 -0.44777326724157229 0 -0.46038375109284579 -0.45082571239715019 0 -0.46162000912176598 -0.42641311609509103 0 -0.44258871915738701 -0.44548552116841489 0 -0.46038375109284579 -0.45082571239715019 0 -0.46162000912176598 -0.42641311609509103 0 -0.46038375109284579 -0.45082571239715019 0 -0.4776107336913642 -0.44777326724157229 0 -0.47356531390935802 -0.43338152747819048 0 -0.47935112372208111 -0.47164961902022168 0 -0.4776107336913642 -0.44777326724157229 0 -0.48818340082534162 -0.44329923804044391 0 -0.47935112372208111 -0.47164961902022168 0 -0.48818340082534162 -0.44329923804044391 0 -0.47935112372208111 -0.47164961902022168 0 -0.46688094282658948 -0.47130467395963749 0 -0.4776107336913642 -0.44777326724157229 0 -0.46688094282658948 -0.47130467395963749 0 -0.4776107336913642 -0.44777326724157229 0 -0.4776107336913642 -0.44777326724157229 0 -0.48818340082534162 -0.44329923804044391 0 -0.48834052455613869 -0.42424186052350721 0 -0.48818340082534162 -0.44329923804044391 0 -0.48834052455613869 -0.42424186052350721 0 -0.4990703154209134 -0.40071045380544212 0 -0.48834052455613869 -0.42424186052350721 0 -0.48115559446645628 -0.40675371970654572 0 -0.4990703154209134 -0.40071045380544212 0 -0.48834052455613869 -0.42424186052350721 0 -0.4990703154209134 -0.40071045380544212 0 -0.48834052455613869 -0.42424186052350721 0 -0.48115559446645628 -0.40675371970654572 0 -0.47524353803526398 -0.41899718524158258 0 -0.48115559446645628 -0.40675371970654572 0 -0.47524353803526398 -0.41899718524158258 0 -0.46285626715068628 -0.40200051979303192 0 -0.4776107336913642 -0.44777326724157229 0 -0.48834052455613869 -0.42424186052350721 0 -0.47524353803526398 -0.41899718524158258 0 -0.47356531390935802 -0.43338152747819048 0 -0.46162000912176598 -0.42641311609509103 0 -0.4776107336913642 -0.44777326724157229 0 -0.48834052455613869 -0.42424186052350721 0 -0.47356531390935802 -0.43338152747819048 0 -0.48834052455613869 -0.42424186052350721 0 -0.47524353803526398 -0.41899718524158258 0 -0.47356531390935802 -0.43338152747819048 0 -0.4990703154209134 -0.40071045380544212 0 -0.48406698010789773 -0.38678406164518703 0 -0.49086363292701191 -0.35764769076275388 0 -0.48115559446645628 -0.40675371970654572 0 -0.4990703154209134 -0.40071045380544212 0 -0.48406698010789773 -0.38678406164518703 0 -0.48115559446645628 -0.40675371970654572 0 -0.4744255284996482 -0.39506191926861001 0 -0.48406698010789773 -0.38678406164518703 0 -0.48115559446645628 -0.40675371970654572 0 -0.4744255284996482 -0.39506191926861001 0 -0.46285626715068628 -0.40200051979303192 0 -0.48406698010789773 -0.38678406164518703 0 -0.46409252517960659 -0.37758792349097281 0 -0.47653428035749562 -0.36982386218039282 0 -0.4744255284996482 -0.39506191926861001 0 -0.48406698010789773 -0.38678406164518703 0 -0.46409252517960659 -0.37758792349097281 0 -0.46409252517960659 -0.37758792349097281 0 -0.46285626715068628 -0.40200051979303192 0 -0.46409252517960659 -0.37758792349097281 0 -0.46285626715068628 -0.40200051979303192 0 -0.44197676278456638 -0.39029084053029051 0 -0.4744255284996482 -0.39506191926861001 0 -0.46409252517960659 -0.37758792349097281 0 -0.46285626715068628 -0.40200051979303192 0 -0.44197676278456638 -0.39029084053029051 0 -0.44850748528764461 -0.41236719398341609 0 -0.43065002936645219 -0.41065231215666831 0 -0.46285626715068628 -0.40200051979303192 0 -0.44197676278456638 -0.39029084053029051 0 -0.44850748528764461 -0.41236719398341609 0 -0.46409252517960659 -0.37758792349097281 0 -0.44197676278456638 -0.39029084053029051 0 -0.45056051596692748 -0.36986698520627831 0 -0.44197676278456638 -0.39029084053029051 0 -0.45056051596692748 -0.36986698520627831 0 -0.43305390688792023 -0.36860286557078847 0 -0.46038375109284579 -0.45082571239715019 0 -0.47356531390935802 -0.43338152747819048 0 -0.46162000912176598 -0.42641311609509103 0 -0.47524353803526398 -0.41899718524158258 0 -0.46285626715068628 -0.40200051979303192 0 -0.46162000912176598 -0.42641311609509103 0 -0.46285626715068628 -0.40200051979303192 0 -0.46162000912176598 -0.42641311609509103 0 -0.46285626715068628 -0.40200051979303192 0 -0.46162000912176598 -0.42641311609509103 0 -0.44850748528764461 -0.41236719398341609 0 -0.44850748528764461 -0.41236719398341609 0 -0.43646851721348018 -0.42653250308672092 0 -0.43065002936645219 -0.41065231215666831 0 -0.46162000912176598 -0.42641311609509103 0 -0.44850748528764461 -0.41236719398341609 0 -0.43646851721348018 -0.42653250308672092 0 -0.44258871915738701 -0.44548552116841489 0 -0.46162000912176598 -0.42641311609509103 0 -0.43646851721348018 -0.42653250308672092 0 -0.43646851721348018 -0.42653250308672092 0 -0.41235978321250499 -0.42095724657865857 0 -0.42121719363486132 -0.44208073723489361 0 -0.43646851721348018 -0.42653250308672092 0 -0.43065002936645219 -0.41065231215666831 0 -0.41235978321250499 -0.42095724657865857 0 -0.41235978321250499 -0.42095724657865857 0 -0.41562362519132712 -0.4067692603550504 0 -0.39882217473961967 -0.4085590504698548 0 -0.43065002936645219 -0.41065231215666831 0 -0.41235978321250499 -0.42095724657865857 0 -0.41562362519132712 -0.4067692603550504 0 -0.41235978321250499 -0.42095724657865857 0 -0.39984566811233568 -0.43867595330137221 0 -0.42121719363486132 -0.44208073723489361 0 -0.44197676278456638 -0.39029084053029051 0 -0.41797980184918471 -0.38039442721806083 0 -0.43305390688792023 -0.36860286557078847 0 -0.44197676278456638 -0.39029084053029051 0 -0.42261836819082937 -0.39702232197660309 0 -0.41797980184918471 -0.38039442721806083 0 -0.44197676278456638 -0.39029084053029051 0 -0.43065002936645219 -0.41065231215666831 0 -0.42261836819082937 -0.39702232197660309 0 -0.43065002936645219 -0.41065231215666831 0 -0.41562362519132712 -0
[...]
<PointData Scalars="" Vectors="displacement," Tensors="">
<DataArray type="Float64" Name="displacement" NumberOfComponents="3" format="ascii">
-0.034996604140203301 -9.355373450678965e-07 0 -0.034777762355098822 -1.5954497611644097e-05 0 -0.034893350152976142 -5.0834865835567504e-05 0 -0.034996604140203301 -9.355373450678965e-07 0 -0.034893350152976142 -5.0834865835567504e-05 0 -0.034936142052223049 2.6683906394142769e-07 0 -0.033653993135393009 -0.00027436801751629032 0 -0.033491556321634093 -2.395258528727812e-05 0 -0.033186686623884708 -5.9525110967386413e-05 0 -0.033653993135393009 -0.00027436801751629032 0 -0.033491556321634093 -2.395258528727812e-05 0 -0.033697425628118921 0.00013916266041894104 0 -0.033653993135393009 -0.00027436801751629032 0 -0.033186686623884708 -5.9525110967386413e-05 0 -0.03293261726906338 -1.0618791453947705e-06 0 -0.034218893182437517 -0.00013557539029438565 0 -0.032936686211666302 -3.5218495092121537e-08 0 -0.034996604140203301 -9.355373450678965e-07 0 -0.034777762355098822 -1.5954497611644097e-05 0 -0.03294164320323114 1.3615728284481225e-06 0 -0.033186686623884708 -5.9525110967386413e-05 0 -0.03293261726906338 -1.0618791453947705e-06 0 -0.032057718619583377 1.2455908409393549e-06 0 -0.032051142637063441 1.9767323817642343e-06 0 -0.029465577171907953 0.00031549105887694021 0 -0.030246837300385052 -1.6379360344431882e-05 0 -0.032057718619583377 1.2455908409393549e-06 0 -0.033430663801933928 9.3097189939618416e-05 0 -0.033591435042645307 0.00040984114749630416 0 -0.033186686623884708 -5.9525110967386413e-05 0 -0.032057718619583377 1.2455908409393549e-06 0 -0.033430663801933928 9.3097189939618416e-05 0 -0.0320209342989193 8.867045225128509e-05 0 -0.031591106957861492 0.00026373747437724343 0 -0.033491556321634093 -2.395258528727812e-05 0 -0.033186686623884708 -5.9525110967386413e-05 0 -0.033430663801933928 9.3097189939618416e-05 0 -0.033491556321634093 -2.395258528727812e-05 0 -0.033430663801933928 9.3097189939618416e-05 0 -0.033697425628118921 0.00013916266041894104 0 -0.033430663801933928 9.3097189939618416e-05 0 -0.033697425628118921 0.00013916266041894104 0 -0.033591435042645307 0.00040984114749630416 0 -0.029465577171907953 0.00031549105887694021 0 -0.029602412625736558 -5.4239329374208816e-05 0 -0.030246837300385052 -1.6379360344431882e-05 0 -0.029602412625736558 -5.4239329374208816e-05 0 -0.029866663529537887 -0.00012915783696324873 0 -0.030246837300385052 -1.6379360344431882e-05 0 -0.029465577171907953 0.00031549105887694021 0 -0.029602412625736558 -5.4239329374208816e-05 0 -0.029346268100801817 -0.00011834938082842744 0 -0.029435381157336963 -0.00010886489612849258 0 -0.029866663529537887 -0.00012915783696324873 0 -0.029154739859138294 -0.00014125308774922359 0 -0.029435381157336963 -0.00010886489612849258 0 -0.029346268100801817 -0.00011834938082842744 0 -0.029154739859138294 -0.00014125308774922359 0 -0.029602412625736558 -5.4239329374208816e-05 0 -0.029435381157336963 -0.00010886489612849258 0 -0.029346268100801817 -0.00011834938082842744 0 -0.029602412625736558 -5.4239329374208816e-05 0 -0.029435381157336963 -0.00010886489612849258 0 -0.029866663529537887 -0.00012915783696324873 0 -0.029866663529537887 -0.00012915783696324873 0 -0.03102964709107351 -8.8710608468543409e-07 0 -0.029448068576364669 -0.00010356638581959153 0 -0.029866663529537887 -0.00012915783696324873 0 -0.03102964709107351 -8.8710608468543409e-07 0 -0.030747555496044337 -6.3939505774241145e-05 0 -0.032051142637063441 1.9767323817642343e-06 0 -0.03102964709107351 -8.8710608468543409e-07 0 -0.030747555496044337 -6.3939505774241145e-05 0 -0.029866663529537887 -0.00012915783696324873 0 -0.030747555496044337 -6.3939505774241145e-05 0 -0.030246837300385052 -1.6379360344431882e-05 0 -0.032051142637063441 1.9767323817642343e-06 0 -0.030747555496044337 -6.3939505774241145e-05 0 -0.030246837300385052 -1.6379360344431882e-05 0 -0.029792863791277376 -5.2496718956987152e-05 0 -0.029346268100801817 -0.00011834938082842744 0 -0.029268577126473658 -6.9454340270251662e-05 0 -0.029792863791277376 -5.2496718956987152e-05 0 -0.029346268100801817 -0.00011834938082842744 0 -0.029616524214950781 -0.00059266930703310238 0 -0.029465577171907953 0.00031549105887694021 0 -0.029346268100801817 -0.00011834938082842744 0 -0.029616524214950781 -0.00059266930703310238 0 -0.031591106957861492 0.00026373747437724343 0 -0.031987858548788314 -0.00013498289477202209 0 -0.033697425628118921 0.00013916266041894104 0 -0.033591435042645307 0.00040984114749630416 0 -0.034275224833925325 0.00026099878928050155 0 -0.033697425628118921 0.00013916266041894104 0 -0.034275224833925325 0.00026099878928050155 0 -0.034361582567217129 -0.00014117135644696932 0 -0.031987858548788314 -0.00013498289477202209 0 -0.032924873700801757 -0.00045414190335073615 0 -0.029792863791277376 -5.2496718956987152e-05 0 -0.029616524214950781 -0.00059266930703310238 0 -0.031131996579078752 -0.0010246768114569298 0 -0.034275224833925325 0.00026099878928050155 0 -0.034361582567217129 -0.00014117135644696932 0 -0.034632131601841053 -5.1614350648071076e-05 0 -0.033653993135393009 -0.00027436801751629032 0 -0.034727523138873499 7.7272675784989696e-05 0 -0.034893350152976142 -5.0834865835567504e-05 0 -0.034218893182437517 -0.00013557539029438565 0 -0.034822193349232033 -7.6032152579939372e-05 0 -0.033653993135393009 -0.00027436801751629032 0 -0.033697425628118921 0.00013916266041894104 0 -0.034727523138873499 7.7272675784989696e-05 0 -0.033784632524558163 0.00014307027325287413 0 -0.034518000629095581 -3.8750417417904407e-05 0 -0.034727523138873499 7.7272675784989696e-05 0 -0.034893350152976142 -5.0834865835567504e-05 0 -0.034924867064788728 -3.0907130863156975e-05 0 -0.034893350152976142 -5.0834865835567504e-05 0 -0.034924867064788728 -3.0907130863156975e-05 0 -0.034936142052223049 2.6683906394142769e-07 0 -0.034793456855231539 -0.00016903929213834019 0 -0.034869190891211967 -8.1330626954067447e-05 0 -0.034933763321609079 -2.3092863665952375e-07 0 -0.034850992285286715 -8.5659742317334122e-05 0 -0.034917189587823104 -1.8914441813285198e-05 0 -0.034793456855231539 -0.00016903929213834019 0 -0.034869190891211967 -8.1330626954067447e-05 0 -0.034815506593855558 -7.5149855773115344e-05 0 -0.034869190891211967 -8.1330626954067447e-05 0 -0.034815506593855558 -7.5149855773115344e-05 0 -0.034873974330327205 -0.00017210180049180159 0 -0.034518000629095581 -3.8750417417904407e-05 0 -0.034850992285286715 -8.5659742317334122e-05 0 -0.034815506593855558 -7.5149855773115344e-05 0 -0.034632131601841053 -5.1614350648071076e-05 0 -0.034737887694751744 8.0316594573756787e-05 0 -0.034361582567217129 -0.00014117135644696932 0 -0.034793456855231539 -0.00016903929213834019 0 -0.034632131601841053 -5.1614350648071076e-05 0 -0.034793456855231539 -0.00016903929213834019 0 -0.034815506593855558 -7.5149855773115344e-05 0 -0.034632131601841053 -5.1614350648071076e-05 0 -0.034933763321609079 -2.3092863665952375e-07 0 -0.034775609905198797 -3.3606502076020871e-05 0 -0.034852696875524641 -1.5592647596563034e-05 0 -0.034869190891211967 -8.1330626954067447e-05 0 -0.034933763321609079 -2.3092863665952375e-07 0 -0.034775609905198797 -3.3606502076020871e-05 0 -0.034869190891211967 -8.1330626954067447e-05 0 -0.034792402408232469 -0.00010809516374263039 0 -0.034775609905198797 -3.3606502076020871e-05 0 -0.034869190891211967 -8.1330626954067447e-05 0 -0.034792402408232469 -0.00010809516374263039 0 -0.034873974330327205 -0.00017210180049180159 0 -0.034775609905198797 -3.3606502076020871e-05 0 -0.034338007383967528 -0.00034630498185214209 0 -0.034586149435733335 -0.00013098367802933999 0 -0.034792402408232469 -0.00010809516374263039 0 -0.034775609905198797 -3.3606502076020871e-05 0 -0.034338007383967528 -0.00034630498185214209 0 -0.034264577449684863 -0.00039190688255526473 0 -0.033811578355668247 -0.00051106709136512784 0 -0.034338007383967528 -0.00034630498185214209 0 -0.032831701457625304 -0.00090879882359085409 0 -0.033476882782196626 0.00014876029238599029 0 -0.034792402408232469 -0.00010809516374263039 0 -0.034338007383967528 -0.00034630498185214209 0 -0.034873974330327205 -0.00017210180049180159 0 -0.033476882782196626 0.00014876029238599029 0 -0.032119925911805479 -0.00024230631492328419 0 -0.032212860555474246 0.00060221674346698419 0 -0.032831701457625304 -0.00090879882359085409 0 -0.033476882782196626 0.00014876029238599029 0 -0.032119925911805479 -0.00024230631492328419 0 -0.034338007383967528 -0.00034630498185214209 0 -0.033476882782196626 0.00014876029238599029 0 -0.0342502467991831 -2.0512217309377439e-05 0 -0.033476882782196626 0.00014876029238599029 0 -0.0342502467991831 -2.0512217309377439e-05 0 -0.034146187569384964 0.00037821408161121825 0 -0.034275224833925325 0.00026099878928050155 0 -0.034632131601841053 -5.1614350648071076e-05 0 -0.034737887694751744 8.0316594573756787e-05 0 -0.034815506593855558 -7.5149855773115344e-05 0 -0.034873974330327205 -0.00017210180049180159 0 -0.034737887694751744 8.0316594573756787e-05 0 -0.033811578355668247 -0.00051106709136512784 0 -0.032924873700801757 -0.00045414190335073615 0 -0.032831701457625304 -0.00090879882359085409 0 -0.031131996579078752 -0.0010246768114569298 0 -0.032119925911805479 -0.00024230631492328419 0 -0.032119925911805479 -0.00024230631492328419 0 -0.031189916292878213 0.00034492583299602008 0 -0.032212860555474246 0.00060221674346698419 0 -0.031131996579078752 -0.0010246768114569298 0 -0.032119925911805479 -0.00024230631492328419 0 -0.031189916292878213 0.00034492583299602008 0 -0.029792863791277376 -5.2496718956987152e-05 0 -0.031131996579078752 -0.0010246768114569298 0 -0.031189916292878213 0.00034492583299602008 0 -0.031189916292878213 0.00034492583299602008 0 -0.031548474637920661 0.0015451558222766139 0 -0.030299845737980786 0.0011528336318928621 0 -0.031189916292878213 0.00034492583299602008 0 -0.032212860555474246 0.00060221674346698419 0 -0.031548474637920661 0.0015451558222766139 0 -0.031548474637920661 0.0015451558222766139 0 -0.032398453893807265 0.001298323578534035 0 -0.032238686157878137 0.0022029326915737725 0 -0.032212860555474246 0.00060221674346698419 0 -0.031548474637920661 0.0015451558222766139 0 -0.032398453893807265 0.001298323578534035 0 -0.031548474637920661 0.0015451558222766139 0 -0.030566983680118578 0.0022088237804401261 0 -0.030299845737980786 0.0011528336318928621 0 -0.033476882782196626 0.00014876029238599029 0 -0.033890822449765164 0.00082302723803343383 0 -0.034146187569384964 0.00037821408161121825 0 -0.033476882782196626 0.00014876029238599029 0 -0.033012482654412298 0.0008699612434927759 0 -0.033890822449765164 0.00082302723803343383 0 -0.033476882782196626 0.00014876029238599029 0 -0.032212860555474246 0.00060221674346698419 0 -0.033012482654412298 0.0008699612434927759 0 -0.032212860555474246 0.00060221674346698419 0 -0.032398453893807265 0.001298323578534035 0 -0.033012482654412298 0.0008699612434927759 0 -0.032398453893807265 0.001298323578534035 0 -0.032951764514284693 0.0016800972875611129 0 -0.032238686157878137 0.0022029326915737725 0 -0.032398453893807265 0.001298323578534035 0 -0.033012482654412298 0.0008699612434927759 0 -0.032951764514284693 0.0016800972875611129 0 -0.033012482654412298 0.0008699612434927759 0 -0.032951764514284693 0.0016800972875611129 0 -0.033890822449765164 0.00082302723803343383 0 -0.032951764514284693 0.0016800972875611129 0 -0.033890822449765164 0.00082302723803343383 0 -0.0335142485751347 0.0021042725256730814 0 -0.033898528616408914 0.00084971815137647371 0 -0.033806624179228507 0.0012597476410566466 0 -0.034141792405085664 0.00047755209373159845 0 -0.034031845586808655 0.00053415561936775264 0 -0.03406542777406802 0.00037983384730378816 0 -0.033890822449765164 0.00082302723803343383 0 -0.034141792405085664 0.00047755209373159845 0 -0.034031845586808655 0.00053415561936775264 0 -0.032951764514284693 0.0016800972875611129 0 -0.0335142485751347 0.0021042725256730814 0 -0.032748776431812517 0.0025139423355824949 0 -0.032951764514284693 0.0016800972875611129 0 -0.032489718742124404 0.0029509940612549744 0 -0.032238686157878137 0.0022029326915737725 0 -0.03290600516622752 0.001678963255636794 0 -0.03284881622561988 0.0029532463737583568 0 -0.032748776431812517 0.0025139423355824949 0 -0.033235891886028199 0.0028198994758779779 0 -0.032521170063691894 0.0031864772547464605 0 -0.0335142485751347 0.0021042725256730814 0 -0.032748776431812517 0.0025139423355824949 0 -0.033235891886028199 0.0028198994758779779 0 -0.034120734807709059 0.00033541197515372088 0 -0.03406542777406802 0.00037983384730378816 0 -0.034052166230685819 0.00028150419521968419 0 -0.033806624179228507 0.0012597476410566466 0 -0.033850170399144376 0.0016245121217685621 0 -0.034141792405085664 0.00047755209373159845 0 -0.034120734807709059 0.00033541197515372088 0 -0.03406542777406802 0.00037983384730378816 0 -0.031548474637920661 0.0015451558222766139 0 -0.031516328184023147 0.0025677286483966623 0 -0.030566983680118578 0.0022088237804401261 0 -0.031548474637920661 0.0015451558222766139 0 -0.032238686157878137 0.0022029326915737725 0 -0.031516328184023147 0.0025677286483966623 0 -0.032489718742124404 0.0029509940612549744 0 -0.032238686157878137 0.0022029326915737725 0 -0.031516328184023147 0.0025677286483966623 0 -0.032489718742124404 0.0029509940612549744 0 -0.031516328184023147 0.0025677286483966623 0 -0.031705142370964771 0.0032237814296889209 0 -0.03284881622561988 0.0029532463737583568 0 -0.028906961413430583 0.0017301548327123566 0 -0.032489718742124404 0.0029509940612549744 0 -0.031705142370964771 0.0032237814296889209 0 -0.032080513784384576 0.0040542227610633023 0 -0.027251873890998028 0.0013246444966399406 0 -0.030299049734491875 0.0017547077701964933 0 -0.031516328184023147 0.0025677286483966623 0 -0.030744328588349999 0.0033115882302128937 0 -0.030566983680118578 0.0022088237804401261 0 -0.031516328184023147 0.0025677286483966623 0 -0.031705142370964771 0.0032237814296889209 0 -0.030744328588349999 0.0033115882302128937 0 -0.029727362890943746 0.001757400913127485 0 -0.029570325918226559 0.00067293471579197976 0 -0.028851173102656062 0.0012849765800809665 0 -0.02435338076207564 0.00016901208986832303 0 -0.025323754807123549 0.00042320602018891806 0 -0.02477250587807403 -0.00010531907336005993 0 -0.027251873890998028 0.0013246444966399406 0 -0.027028341686542525 0.00074434871006379816 0 -0.029570325918226559 0.00067293471579197976 0 -0.028937338942916776 0.00041578122101099959 0 -0.028851173102656062 0.0012849765800809665 0 -0.028937338942916776 0.00041578122101099959 0 -0.028851173102656062 0.0012849765800809665 0 -0.027432320830323157 0.00049227260930880088 0 -0.027028341686542525 0.00074434871006379816 0 -0.027325686037136275 0.00058229845144394644 0 -0.025323754807123549 0.00042320602018891806 0 -0.026178563968725643 -4.1812983456038488e-05 0 -0.02477250587807403 -0.00010531907336005993 0 -0.025323754807123549 0.00042320602018891806 0 -0.026178563968725643 -4.1812983456038488e-05 0 -0.027432320830323157 0.00049227260930880088 0 -0.026178563968725643 -4.1812983456038488e-05 0 -0.02721695102048334 2.2710028150664254e-07 0 -0.027726878209772089 0.00015178877327765442 0 -0.026178563968725643 -4.1812983456038488e-05 0 -0.02721695102048334 2.2710028150664254e-07 0 -0.025309725219026542 -3.7527241298151829e-07 0 -0.02721695102048334 2.2710028150664254e-07 0 -0.027726878209772089 0.00015178877327765442 0 -0.029122572318584533 8.4543152154190741e-08 0 -0.027726878209772089 0.00015178877327765442 0 -0.027432320830323157 0.00049227260930880088 0 -0.028455028840051289 4.632750949391939e-05 0 -0.026178563968725643 -4.1812983456038488e-05 0 -0.027726878209772089 0.00015178877327765442 0 -0.027432320830323157 0.00049227260930880088 0 -0.027432320830323157 0.00049227260930880088 0 -0.028455028840051289 4.632750949391939e-05 0 -0.028779470163179794 3.9773394261684178e-06 0 -0.028455028840051289 4.632750949391939e-05 0 -0.029154739859138294 -0.00014125308774922359 0 -0.028779470163179794 3.9773394261684178e-06 0 -0.028455028840051289 4.632750949391939e-05 0 -0.029122572318584533 8.4543152154190741e-08 0 -0.029448068576364669 -0.00010356638581959153 0 -0.027726878209772089 0.00015178877327765442 0 -0.028455028840051289 4.632750949391939e-05 0 -0.029122572318584533 8.4543152154190741e-08 0 -0.03102964709107351 -8.8710608468543409e-07 0 -0.029122572318584533 8.4543152154190741e-08 0 -0.029448068576364669 -0.00010356638581959153 0 -0.028455028840051289 4.632750949391939e-05 0 -0.029448068576364669 -0.00010356638581959153 0 -0.029154739859138294 -0.00014125308774922359 0 -0.029866663529537887 -0.00012915783696324873 0 -0.029448068576364669 -0.00010356638581959153 0 -0.029154739859138294 -0.00014125308774922359 0 -0.029346268100801817 -0.00011834938082842744 0 -0.029154739859138294 -0.00014125308774922359 0 -0.029268577126473658 -6.9454340270251662e-05 0 -0.029268577126473658 -6.9454340270251662e-05 0 -0.029415328673669552 -2.538433828831149e-05 0 -0.028779470163179794 3.9773394261684178e-06 0 -0.029154739859138294 -0.00014125308774922359 0 -0.029268577126473658 -6.9454340270251662e-05 0 -0.028779470163179794 3.9773394261684178e-06 0 -0.029792863791277376 -5.2496718956987152e-05 0 -0.031189916292878213 0.00034492583299602008 0 -0.030299845737980786 0.0011528336318928621 0 -0.029792863791277376 -5.2496718956987152e-05 0 -0.029268577126473658 -6.9454340270251662e-05 0 -0.029415328673669552 -2.538433828831149e-05 0 -0.029788965838452836 -2.5183056472775989e-05 0 -0.029844111954121719 0.00047291477272295605 0 -0.028937338942916776 0.00041578122101099959 0 -0.029415328673669552 -2.538433828831149e-05 0 -0.028779470163179794 3.9773394261684178e-06 0 -0.029570325918226559 0.00067293471579197976 0 -0.028937338942916776 0.00041578122101099959 0 -0.029415328673669552 -2.538433828831149e-05 0 -0.030299049734491875 0.0017547077701964933 0 -0.029844111954121719 0.00047291477272295605 0 -0.028937338942916776 0.00041578122101099959 0 -0.027432320830323157 0.00049227260930880088 0 -0.028779470163179794 3.9773394261684178e-06 0 -0.034997443892339414 3.6002570720232919e-06 0 -0.034994522259972641 9.4705480105300322e-06 0 -0.034999759640471785 -1.6987989264280939e-08 0 -0.034997443892339414 3.6002570720232919e-06 0 -0.034999759640471785 -1.6987989264280939e-08 0 -0.035000076496694767 3.5906208533953897e-08 0 -0.034987612882578921 1.0639845289932696e-05 0 -0.034990859638791012 1.0601255612506556e-05 0 -0.034986629435277 9.4396647700084266e-06 0 -0.034987612882578921 1.0639845289932696e-05 0 -0.034990408083340654 1.292136176698896e-05 0 -0.034986858036000726 1.9123823863399183e-05 0 -0.03374473644560199 0.00033839960129131228 0 -0.033867131118903708 0.00039753810102483109 0 -0.033799532947330624 0.00030851583144392823 0 -0.034349487463010211 0.00021135691208162111 0 -0.034448768408404808 0.00019437025093491773 0 -0.034990408083340654 1.292136176698896e-05 0 -0.034993465940910899 9.526224975290191e-06 0 -0.03499105868878561 1.4393328958778243e-05 0 -0.034990408083340654 1.292136176698896e-05 0 -0.03499105868878561 1.4393328958778243e-05 0 -0.034986858036000726 1.9123823863399183e-05 0 -0.034990859638791012 1.0601255612506556e-05 0 -0.03499449403256176 6.9838204753109473e-06 0 -0.034993465940910899 9.526224975290191e-06 0 -0.034987612882578921 1.0639845289932696e-05 0 -0.034990408083340654 1.292136176698896e-05 0 -0.034990859638791012 1.0601255612506556e-05 0 -0.034990408083340654 1.292136176698896e-05 0 -0.034990859638791012 1.0601255612506556e-05 0 -0.034993465940910899 9.526224975290191e-06 0 -0.034990859638791012 1.0601255612506556e-05 0 -0.03499449403256176 6.9838204753109473e-06 0 -0.034990729365792304 1.0485146855671894e-05 0 -0.03499449403256176 6.9838204753109473e-06 0 -0.034997443892339414 3.6002570720232919e-06 0 -0.034993465940910899 9.526224975290191e-06 0 -0.03499449403256176 6.9838204753109473e-06 0 -0.034997443892339414 3.6002570720232919e-06 0 -0.03500037827859432 -1.6743413775607048e-06 0 -0.034997443892339414 3.6002570720232919e-