<?xml version="1.0"?>
<VTKFile type="UnstructuredGrid" version="0.1" byte_order="LittleEndian">
<UnstructuredGrid>
<Piece NumberOfPoints="29363" NumberOfCells="10318">
<Points>
<DataArray type="Float64" NumberOfComponents="3" format="ascii">
-0.5 -0.5 0 -0.47935112372208111 -0.47164961902022168 0 -0.48818340082534162 -0.44329923804044391 0 -0.5 -0.5 0 -0.48818340082534162 -0.44329923804044391 0 -0.4990703154209134 -0.40071045380544212 0 -0.47935112372208111 -0.47164961902022168 0 -0.47034729599720648 -0.47674824172495878 0 -0.46932161335163602 -0.48522058863877299 0 -0.47935112372208111 -0.47164961902022168 0 -0.47034729599720648 -0.47674824172495878 0 -0.46688094282658948 -0.47130467395963749 0 -0.47935112372208111 -0.47164961902022168 0 -0.46932161335163602 -0.48522058863877299 0 -0.47051884661882082 -0.49999999999999961 0 -0.47935112372208111 -0.47164961902022168 0 -0.47051884661882082 -0.49999999999999961 0 -0.5 -0.5 0 -0.47935112372208111 -0.47164961902022168 0 -0.47051884661882082 -0.49999999999999961 0 -0.46932161335163602 -0.48522058863877299 0 -0.47051884661882082 -0.49999999999999961 0 -0.45791123503500519 -0.49999999999999978 0 -0.45791123503500519 -0.49999999999999978 0 -0.45914749306392538 -0.47523830869920952 0 -0.45168500412697821 -0.48448331782380499 0 -0.45791123503500519 -0.49999999999999978 0 -0.46583550408851959 -0.47881808528120312 0 -0.45914749306392538 -0.47523830869920952 0 -0.46932161335163602 -0.48522058863877299 0 -0.45791123503500519 -0.49999999999999978 0 -0.46583550408851959 -0.47881808528120312 0 -0.45791123503500519 -0.49999999999999978 0 -0.45914749306392538 -0.47523830869920952 0 -0.47034729599720648 -0.47674824172495878 0 -0.46932161335163602 -0.48522058863877299 0 -0.46583550408851959 -0.47881808528120312 0 -0.47034729599720648 -0.47674824172495878 0 -0.46583550408851959 -0.47881808528120312 0 -0.46688094282658948 -0.47130467395963749 0 -0.46583550408851959 -0.47881808528120312 0 -0.46688094282658948 -0.47130467395963749 0 -0.45914749306392538 -0.47523830869920952 0 -0.45914749306392538 -0.47523830869920952 0 -0.44776695660416321 -0.47607459961746418 0 -0.45168500412697821 -0.48448331782380499 0 -0.44776695660416321 -0.47607459961746418 0 -0.44231314406066119 -0.48308749030040421 0 -0.45168500412697821 -0.48448331782380499 0 -0.45914749306392538 -0.47523830869920952 0 -0.44776695660416321 -0.47607459961746418 0 -0.44504538444096942 -0.46395024046350369 0 -0.44087353757794151 -0.47368507428098872 0 -0.44231314406066119 -0.48308749030040421 0 -0.43098043943570058 -0.47243990825636101 0 -0.44087353757794151 -0.47368507428098872 0 -0.44504538444096942 -0.46395024046350369 0 -0.43098043943570058 -0.47243990825636101 0 -0.44776695660416321 -0.47607459961746418 0 -0.44087353757794151 -0.47368507428098872 0 -0.44504538444096942 -0.46395024046350369 0 -0.44776695660416321 -0.47607459961746418 0 -0.44087353757794151 -0.47368507428098872 0 -0.44231314406066119 -0.48308749030040421 0 -0.44231314406066119 -0.48308749030040421 0 -0.44328331739940291 -0.5 0 -0.42931612523408968 -0.48705982495043909 0 -0.44231314406066119 -0.48308749030040421 0 -0.44328331739940291 -0.5 0 -0.44906630850436602 -0.49122840637136578 0 -0.45791123503500519 -0.49999999999999978 0 -0.44328331739940291 -0.5 0 -0.44906630850436602 -0.49122840637136578 0 -0.44231314406066119 -0.48308749030040421 0 -0.44906630850436602 -0.49122840637136578 0 -0.45168500412697821 -0.48448331782380499 0 -0.45791123503500519 -0.49999999999999978 0 -0.44906630850436602 -0.49122840637136578 0 -0.45168500412697821 -0.48448331782380499 0 -0.44258871915738701 -0.44548552116841489 0 -0.44504538444096942 -0.46395024046350369 0 -0.43136726259802988 -0.45717283268494507 0 -0.44258871915738701 -0.44548552116841489 0 -0.44504538444096942 -0.46395024046350369 0 -0.46038375109284579 -0.45082571239715019 0 -0.45914749306392538 -0.47523830869920952 0 -0.44504538444096942 -0.46395024046350369 0 -0.46038375109284579 -0.45082571239715019 0 -0.45914749306392538 -0.47523830869920952 0 -0.46038375109284579 -0.45082571239715019 0 -0.46688094282658948 -0.47130467395963749 0 -0.45914749306392538 -0.47523830869920952 0 -0.46038375109284579 -0.45082571239715019 0 -0.46688094282658948 -0.47130467395963749 0 -0.46038375109284579 -0.45082571239715019 0 -0.4776107336913642 -0.44777326724157229 0 -0.46038375109284579 -0.45082571239715019 0 -0.46162000912176598 -0.42641311609509103 0 -0.44258871915738701 -0.44548552116841489 0 -0.46038375109284579 -0.45082571239715019 0 -0.46162000912176598 -0.42641311609509103 0 -0.46038375109284579 -0.45082571239715019 0 -0.4776107336913642 -0.44777326724157229 0 -0.47356531390935802 -0.43338152747819048 0 -0.47935112372208111 -0.47164961902022168 0 -0.4776107336913642 -0.44777326724157229 0 -0.48818340082534162 -0.44329923804044391 0 -0.47935112372208111 -0.47164961902022168 0 -0.48818340082534162 -0.44329923804044391 0 -0.47935112372208111 -0.47164961902022168 0 -0.46688094282658948 -0.47130467395963749 0 -0.4776107336913642 -0.44777326724157229 0 -0.46688094282658948 -0.47130467395963749 0 -0.4776107336913642 -0.44777326724157229 0 -0.4776107336913642 -0.44777326724157229 0 -0.48818340082534162 -0.44329923804044391 0 -0.48834052455613869 -0.42424186052350721 0 -0.48818340082534162 -0.44329923804044391 0 -0.48834052455613869 -0.42424186052350721 0 -0.4990703154209134 -0.40071045380544212 0 -0.48834052455613869 -0.42424186052350721 0 -0.48115559446645628 -0.40675371970654572 0 -0.4990703154209134 -0.40071045380544212 0 -0.48834052455613869 -0.42424186052350721 0 -0.4990703154209134 -0.40071045380544212 0 -0.48834052455613869 -0.42424186052350721 0 -0.48115559446645628 -0.40675371970654572 0 -0.47524353803526398 -0.41899718524158258 0 -0.48115559446645628 -0.40675371970654572 0 -0.47524353803526398 -0.41899718524158258 0 -0.46285626715068628 -0.40200051979303192 0 -0.4776107336913642 -0.44777326724157229 0 -0.48834052455613869 -0.42424186052350721 0 -0.47524353803526398 -0.41899718524158258 0 -0.47356531390935802 -0.43338152747819048 0 -0.46162000912176598 -0.42641311609509103 0 -0.4776107336913642 -0.44777326724157229 0 -0.48834052455613869 -0.42424186052350721 0 -0.47356531390935802 -0.43338152747819048 0 -0.48834052455613869 -0.42424186052350721 0 -0.47524353803526398 -0.41899718524158258 0 -0.47356531390935802 -0.43338152747819048 0 -0.4990703154209134 -0.40071045380544212 0 -0.48406698010789773 -0.38678406164518703 0 -0.49086363292701191 -0.35764769076275388 0 -0.48115559446645628 -0.40675371970654572 0 -0.4990703154209134 -0.40071045380544212 0 -0.48406698010789773 -0.38678406164518703 0 -0.48115559446645628 -0.40675371970654572 0 -0.4744255284996482 -0.39506191926861001 0 -0.48406698010789773 -0.38678406164518703 0 -0.48115559446645628 -0.40675371970654572 0 -0.4744255284996482 -0.39506191926861001 0 -0.46285626715068628 -0.40200051979303192 0 -0.48406698010789773 -0.38678406164518703 0 -0.46409252517960659 -0.37758792349097281 0 -0.47653428035749562 -0.36982386218039282 0 -0.4744255284996482 -0.39506191926861001 0 -0.48406698010789773 -0.38678406164518703 0 -0.46409252517960659 -0.37758792349097281 0 -0.46409252517960659 -0.37758792349097281 0 -0.46285626715068628 -0.40200051979303192 0 -0.46409252517960659 -0.37758792349097281 0 -0.46285626715068628 -0.40200051979303192 0 -0.44197676278456638 -0.39029084053029051 0 -0.4744255284996482 -0.39506191926861001 0 -0.46409252517960659 -0.37758792349097281 0 -0.46285626715068628 -0.40200051979303192 0 -0.44197676278456638 -0.39029084053029051 0 -0.44850748528764461 -0.41236719398341609 0 -0.43065002936645219 -0.41065231215666831 0 -0.46285626715068628 -0.40200051979303192 0 -0.44197676278456638 -0.39029084053029051 0 -0.44850748528764461 -0.41236719398341609 0 -0.46409252517960659 -0.37758792349097281 0 -0.44197676278456638 -0.39029084053029051 0 -0.45056051596692748 -0.36986698520627831 0 -0.44197676278456638 -0.39029084053029051 0 -0.45056051596692748 -0.36986698520627831 0 -0.43305390688792023 -0.36860286557078847 0 -0.46038375109284579 -0.45082571239715019 0 -0.47356531390935802 -0.43338152747819048 0 -0.46162000912176598 -0.42641311609509103 0 -0.47524353803526398 -0.41899718524158258 0 -0.46285626715068628 -0.40200051979303192 0 -0.46162000912176598 -0.42641311609509103 0 -0.46285626715068628 -0.40200051979303192 0 -0.46162000912176598 -0.42641311609509103 0 -0.46285626715068628 -0.40200051979303192 0 -0.46162000912176598 -0.42641311609509103 0 -0.44850748528764461 -0.41236719398341609 0 -0.44850748528764461 -0.41236719398341609 0 -0.43646851721348018 -0.42653250308672092 0 -0.43065002936645219 -0.41065231215666831 0 -0.46162000912176598 -0.42641311609509103 0 -0.44850748528764461 -0.41236719398341609 0 -0.43646851721348018 -0.42653250308672092 0 -0.44258871915738701 -0.44548552116841489 0 -0.46162000912176598 -0.42641311609509103 0 -0.43646851721348018 -0.42653250308672092 0 -0.43646851721348018 -0.42653250308672092 0 -0.41235978321250499 -0.42095724657865857 0 -0.42121719363486132 -0.44208073723489361 0 -0.43646851721348018 -0.42653250308672092 0 -0.43065002936645219 -0.41065231215666831 0 -0.41235978321250499 -0.42095724657865857 0 -0.41235978321250499 -0.42095724657865857 0 -0.41562362519132712 -0.4067692603550504 0 -0.39882217473961967 -0.4085590504698548 0 -0.43065002936645219 -0.41065231215666831 0 -0.41235978321250499 -0.42095724657865857 0 -0.41562362519132712 -0.4067692603550504 0 -0.41235978321250499 -0.42095724657865857 0 -0.39984566811233568 -0.43867595330137221 0 -0.42121719363486132 -0.44208073723489361 0 -0.44197676278456638 -0.39029084053029051 0 -0.41797980184918471 -0.38039442721806083 0 -0.43305390688792023 -0.36860286557078847 0 -0.44197676278456638 -0.39029084053029051 0 -0.42261836819082937 -0.39702232197660309 0 -0.41797980184918471 -0.38039442721806083 0 -0.44197676278456638 -0.39029084053029051 0 -0.43065002936645219 -0.41065231215666831 0 -0.42261836819082937 -0.39702232197660309 0 -0.43065002936645219 -0.41065231215666831 0 -0.41562362519132712 -0
[...]
<PointData Scalars="" Vectors="displacement," Tensors="">
<DataArray type="Float64" Name="displacement" NumberOfComponents="3" format="ascii">
-0.035000324639530379 -0.03499612138542512 0 -0.033484615959658397 -0.035269446670779477 0 -0.031217824871505099 -0.035250768003401482 0 -0.035000324639530379 -0.03499612138542512 0 -0.031217824871505099 -0.035250768003401482 0 -0.028051581273804787 -0.034934935226872604 0 -0.033285732523647749 -0.033775595654369266 0 -0.033671695011840523 -0.033815293228007998 0 -0.034220282542007936 -0.033487174273153147 0 -0.033285732523647749 -0.033775595654369266 0 -0.033671695011840523 -0.033815293228007998 0 -0.033254029004084536 -0.034125608757045386 0 -0.033285732523647749 -0.033775595654369266 0 -0.034220282542007936 -0.033487174273153147 0 -0.034999046571469683 -0.032933572855396553 0 -0.03333788175147398 -0.034486230853425795 0 -0.034999389934506166 -0.032936849777657547 0 -0.035000324639530379 -0.03499612138542512 0 -0.033484615959658397 -0.035269446670779477 0 -0.034997934432722394 -0.032942740640966868 0 -0.034220282542007936 -0.033487174273153147 0 -0.034999046571469683 -0.032933572855396553 0 -0.035000104744294602 -0.032058430764027819 0 -0.035000064463637001 -0.032053065224492847 0 -0.036076484695382424 -0.031409939183745843 0 -0.035704598554707173 -0.031366288043636961 0 -0.035000104744294602 -0.032058430764027819 0 -0.03389526077528264 -0.033942144075661443 0 -0.033682112782244915 -0.034559426603260064 0 -0.034220282542007936 -0.033487174273153147 0 -0.035000104744294602 -0.032058430764027819 0 -0.03389526077528264 -0.033942144075661443 0 -0.034818626026209991 -0.032249592530788039 0 -0.034725155385746019 -0.032882222279862379 0 -0.033671695011840523 -0.033815293228007998 0 -0.034220282542007936 -0.033487174273153147 0 -0.03389526077528264 -0.033942144075661443 0 -0.033671695011840523 -0.033815293228007998 0 -0.03389526077528264 -0.033942144075661443 0 -0.033254029004084536 -0.034125608757045386 0 -0.03389526077528264 -0.033942144075661443 0 -0.033254029004084536 -0.034125608757045386 0 -0.033682112782244915 -0.034559426603260064 0 -0.036076484695382424 -0.031409939183745843 0 -0.035972755466413368 -0.031194807651878001 0 -0.035704598554707173 -0.031366288043636961 0 -0.035972755466413368 -0.031194807651878001 0 -0.035730377587240666 -0.030952774739784947 0 -0.035704598554707173 -0.031366288043636961 0 -0.036076484695382424 -0.031409939183745843 0 -0.035972755466413368 -0.031194807651878001 0 -0.036190173845311098 -0.031238519821354862 0 -0.035989701366178045 -0.030943490112128227 0 -0.035730377587240666 -0.030952774739784947 0 -0.036012333118793746 -0.030470081885719823 0 -0.035989701366178045 -0.030943490112128227 0 -0.036190173845311098 -0.031238519821354862 0 -0.036012333118793746 -0.030470081885719823 0 -0.035972755466413368 -0.031194807651878001 0 -0.035989701366178045 -0.030943490112128227 0 -0.036190173845311098 -0.031238519821354862 0 -0.035972755466413368 -0.031194807651878001 0 -0.035989701366178045 -0.030943490112128227 0 -0.035730377587240666 -0.030952774739784947 0 -0.035730377587240666 -0.030952774739784947 0 -0.034999782592560799 -0.031029857440896706 0 -0.035544854619011211 -0.030165968742447247 0 -0.035730377587240666 -0.030952774739784947 0 -0.034999782592560799 -0.031029857440896706 0 -0.035410593602156863 -0.031330953340228063 0 -0.035000064463637001 -0.032053065224492847 0 -0.034999782592560799 -0.031029857440896706 0 -0.035410593602156863 -0.031330953340228063 0 -0.035730377587240666 -0.030952774739784947 0 -0.035410593602156863 -0.031330953340228063 0 -0.035704598554707173 -0.031366288043636961 0 -0.035000064463637001 -0.032053065224492847 0 -0.035410593602156863 -0.031330953340228063 0 -0.035704598554707173 -0.031366288043636961 0 -0.035911402705385863 -0.031901956001399299 0 -0.036190173845311098 -0.031238519821354862 0 -0.036262219828894854 -0.03081061483298431 0 -0.035911402705385863 -0.031901956001399299 0 -0.036190173845311098 -0.031238519821354862 0 -0.036018781701966117 -0.03088140521747983 0 -0.036076484695382424 -0.031409939183745843 0 -0.036190173845311098 -0.031238519821354862 0 -0.036018781701966117 -0.03088140521747983 0 -0.034725155385746019 -0.032882222279862379 0 -0.033374456268354107 -0.033071797601567046 0 -0.033254029004084536 -0.034125608757045386 0 -0.033682112782244915 -0.034559426603260064 0 -0.030850591244800482 -0.035291601101186162 0 -0.033254029004084536 -0.034125608757045386 0 -0.030850591244800482 -0.035291601101186162 0 -0.030440195135765083 -0.033823784514231313 0 -0.033374456268354107 -0.033071797601567046 0 -0.031028216586320548 -0.033005484446878876 0 -0.035911402705385863 -0.031901956001399299 0 -0.036018781701966117 -0.03088140521747983 0 -0.033309763279433253 -0.03068506892912895 0 -0.030850591244800482 -0.035291601101186162 0 -0.030440195135765083 -0.033823784514231313 0 -0.02918375673249533 -0.03443104761330848 0 -0.033285732523647749 -0.033775595654369266 0 -0.0316369032856329 -0.035245617703048952 0 -0.031217824871505099 -0.035250768003401482 0 -0.03333788175147398 -0.034486230853425795 0 -0.031448690248553499 -0.035124728712070986 0 -0.033285732523647749 -0.033775595654369266 0 -0.033254029004084536 -0.034125608757045386 0 -0.0316369032856329 -0.035245617703048952 0 -0.033008975926457136 -0.034287388164829284 0 -0.03106795837649208 -0.034488051652559124 0 -0.0316369032856329 -0.035245617703048952 0 -0.031217824871505099 -0.035250768003401482 0 -0.029837504654014455 -0.035434739730789422 0 -0.031217824871505099 -0.035250768003401482 0 -0.029837504654014455 -0.035434739730789422 0 -0.028051581273804787 -0.034934935226872604 0 -0.028348963852236574 -0.034020615561537529 0 -0.027851138906105292 -0.034516436363232511 0 -0.028048967586351229 -0.034930998793034629 0 -0.02912760137179226 -0.034727189303104603 0 -0.02816777493878574 -0.034865463200449497 0 -0.028348963852236574 -0.034020615561537529 0 -0.027851138906105292 -0.034516436363232511 0 -0.028240151639978193 -0.034527385786913799 0 -0.027851138906105292 -0.034516436363232511 0 -0.028240151639978193 -0.034527385786913799 0 -0.027518419588677626 -0.034830249301667185 0 -0.03106795837649208 -0.034488051652559124 0 -0.02912760137179226 -0.034727189303104603 0 -0.028240151639978193 -0.034527385786913799 0 -0.02918375673249533 -0.03443104761330848 0 -0.028665345811440014 -0.035245560998689932 0 -0.030440195135765083 -0.033823784514231313 0 -0.028348963852236574 -0.034020615561537529 0 -0.02918375673249533 -0.03443104761330848 0 -0.028348963852236574 -0.034020615561537529 0 -0.028240151639978193 -0.034527385786913799 0 -0.02918375673249533 -0.03443104761330848 0 -0.028048967586351229 -0.034930998793034629 0 -0.027232292322102163 -0.034850560439379515 0 -0.025452901870790221 -0.035161803957528708 0 -0.027851138906105292 -0.034516436363232511 0 -0.028048967586351229 -0.034930998793034629 0 -0.027232292322102163 -0.034850560439379515 0 -0.027851138906105292 -0.034516436363232511 0 -0.02737542349140485 -0.034589923137234267 0 -0.027232292322102163 -0.034850560439379515 0 -0.027851138906105292 -0.034516436363232511 0 -0.02737542349140485 -0.034589923137234267 0 -0.027518419588677626 -0.034830249301667185 0 -0.027232292322102163 -0.034850560439379515 0 -0.027311929706802792 -0.033686124208736359 0 -0.026679929607536269 -0.034493095033414266 0 -0.02737542349140485 -0.034589923137234267 0 -0.027232292322102163 -0.034850560439379515 0 -0.027311929706802792 -0.033686124208736359 0 -0.027586229372890129 -0.033592470319636039 0 -0.028907699016987264 -0.033269964869654625 0 -0.027311929706802792 -0.033686124208736359 0 -0.030037558617663589 -0.031657417691281969 0 -0.028905253264304404 -0.033598122669975514 0 -0.02737542349140485 -0.034589923137234267 0 -0.027311929706802792 -0.033686124208736359 0 -0.027518419588677626 -0.034830249301667185 0 -0.028905253264304404 -0.033598122669975514 0 -0.031415755316311071 -0.032506298109747936 0 -0.031339493951235212 -0.034045725505884437 0 -0.030037558617663589 -0.031657417691281969 0 -0.028905253264304404 -0.033598122669975514 0 -0.031415755316311071 -0.032506298109747936 0 -0.027311929706802792 -0.033686124208736359 0 -0.028905253264304404 -0.033598122669975514 0 -0.027416667925174557 -0.033763674713929936 0 -0.028905253264304404 -0.033598122669975514 0 -0.027416667925174557 -0.033763674713929936 0 -0.027608346385743214 -0.034194518062063875 0 -0.030850591244800482 -0.035291601101186162 0 -0.02918375673249533 -0.03443104761330848 0 -0.028665345811440014 -0.035245560998689932 0 -0.028240151639978193 -0.034527385786913799 0 -0.027518419588677626 -0.034830249301667185 0 -0.028665345811440014 -0.035245560998689932 0 -0.028907699016987264 -0.033269964869654625 0 -0.031028216586320548 -0.033005484446878876 0 -0.030037558617663589 -0.031657417691281969 0 -0.033309763279433253 -0.03068506892912895 0 -0.031415755316311071 -0.032506298109747936 0 -0.031415755316311071 -0.032506298109747936 0 -0.033172320643821605 -0.033279872891635517 0 -0.031339493951235212 -0.034045725505884437 0 -0.033309763279433253 -0.03068506892912895 0 -0.031415755316311071 -0.032506298109747936 0 -0.033172320643821605 -0.033279872891635517 0 -0.035911402705385863 -0.031901956001399299 0 -0.033309763279433253 -0.03068506892912895 0 -0.033172320643821605 -0.033279872891635517 0 -0.033172320643821605 -0.033279872891635517 0 -0.032646034810595768 -0.035645458535191181 0 -0.034895989269961146 -0.034839429471815744 0 -0.033172320643821605 -0.033279872891635517 0 -0.031339493951235212 -0.034045725505884437 0 -0.032646034810595768 -0.035645458535191181 0 -0.032646034810595768 -0.035645458535191181 0 -0.031136518484550079 -0.03533599516613601 0 -0.031666748743417496 -0.036657737488130462 0 -0.031339493951235212 -0.034045725505884437 0 -0.032646034810595768 -0.035645458535191181 0 -0.031136518484550079 -0.03533599516613601 0 -0.032646034810595768 -0.035645458535191181 0 -0.034257221978931045 -0.036596660542928094 0 -0.034895989269961146 -0.034839429471815744 0 -0.028905253264304404 -0.033598122669975514 0 -0.028369442603656647 -0.034919414578179826 0 -0.027608346385743214 -0.034194518062063875 0 -0.028905253264304404 -0.033598122669975514 0 -0.029941900666354701 -0.034735248404381157 0 -0.028369442603656647 -0.034919414578179826 0 -0.028905253264304404 -0.033598122669975514 0 -0.031339493951235212 -0.034045725505884437 0 -0.029941900666354701 -0.034735248404381157 0 -0.031339493951235212 -0.034045725505884437 0 -0.031136518484550079 -0.03533599516613601 0 -0.029941900666354701 -0.034735248404381157 0 -0.031136518484550079 -0.03533599516613601 0 -0.030207802087492311 -0.03604930434652559 0 -0.031666748743417496 -0.036657737488130462 0 -0.031136518484550079 -0.03533599516613601 0 -0.029941900666354701 -0.034735248404381157 0 -0.030207802087492311 -0.03604930434652559 0 -0.029941900666354701 -0.034735248404381157 0 -0.030207802087492311 -0.03604930434652559 0 -0.028369442603656647 -0.034919414578179826 0 -0.030207802087492311 -0.03604930434652559 0 -0.028369442603656647 -0.034919414578179826 0 -0.029242396810682504 -0.036784552473984038 0 -0.028413532326041688 -0.03500800464065245 0 -0.028692710500715198 -0.03584156794239448 0 -0.028189637755073573 -0.03523684915299613 0 -0.027891889787606105 -0.035132675565096923 0 -0.02784673466911488 -0.035465834600855776 0 -0.028369442603656647 -0.034919414578179826 0 -0.028189637755073573 -0.03523684915299613 0 -0.027891889787606105 -0.035132675565096923 0 -0.030207802087492311 -0.03604930434652559 0 -0.029242396810682504 -0.036784552473984038 0 -0.03044426027320335 -0.037414059384038363 0 -0.030207802087492311 -0.03604930434652559 0 -0.031609683683728587 -0.037572927333163912 0 -0.031666748743417496 -0.036657737488130462 0 -0.030248505700143428 -0.035733802326526579 0 -0.030950794737250424 -0.038368153773496595 0 -0.03044426027320335 -0.037414059384038363 0 -0.029711290399156254 -0.037861838577454086 0 -0.030723785814479002 -0.038352803083721146 0 -0.029242396810682504 -0.036784552473984038 0 -0.03044426027320335 -0.037414059384038363 0 -0.029711290399156254 -0.037861838577454086 0 -0.028317385532799829 -0.035714984754774796 0 -0.02784673466911488 -0.035465834600855776 0 -0.027828345375869774 -0.035974192223468412 0 -0.028692710500715198 -0.03584156794239448 0 -0.028936855407448708 -0.037352639754003616 0 -0.028189637755073573 -0.03523684915299613 0 -0.028317385532799829 -0.035714984754774796 0 -0.02784673466911488 -0.035465834600855776 0 -0.032646034810595768 -0.035645458535191181 0 -0.032881359306307374 -0.037069753700010165 0 -0.034257221978931045 -0.036596660542928094 0 -0.032646034810595768 -0.035645458535191181 0 -0.031666748743417496 -0.036657737488130462 0 -0.032881359306307374 -0.037069753700010165 0 -0.031609683683728587 -0.037572927333163912 0 -0.031666748743417496 -0.036657737488130462 0 -0.032881359306307374 -0.037069753700010165 0 -0.031609683683728587 -0.037572927333163912 0 -0.032881359306307374 -0.037069753700010165 0 -0.03278364773225792 -0.03777965067371155 0 -0.030950794737250424 -0.038368153773496595 0 -0.034390152763925839 -0.033142336752313505 0 -0.031609683683728587 -0.037572927333163912 0 -0.03278364773225792 -0.03777965067371155 0 -0.032556359162542174 -0.038570195640207493 0 -0.036547432469746025 -0.030163335636565713 0 -0.035837249727297717 -0.033176387581860894 0 -0.032881359306307374 -0.037069753700010165 0 -0.034039697355793971 -0.037833343929447268 0 -0.034257221978931045 -0.036596660542928094 0 -0.032881359306307374 -0.037069753700010165 0 -0.03278364773225792 -0.03777965067371155 0 -0.034039697355793971 -0.037833343929447268 0 -0.037708013289078385 -0.027733861135265107 0 -0.037587234051733129 -0.028685673220694572 0 -0.036880721876058696 -0.028153782364782179 0 -0.038045704433609828 -0.026299788465694196 0 -0.037285561521226855 -0.027074434577354332 0 -0.037258080929417112 -0.025800058409144518 0 -0.036547432469746025 -0.030163335636565713 0 -0.037457011890845611 -0.027256193264792491 0 -0.037587234051733129 -0.028685673220694572 0 -0.036866461813000781 -0.02886840047823323 0 -0.036880721876058696 -0.028153782364782179 0 -0.036866461813000781 -0.02886840047823323 0 -0.036880721876058696 -0.028153782364782179 0 -0.036206914101481309 -0.028217525456622195 0 -0.037457011890845611 -0.027256193264792491 0 -0.036053759512987858 -0.028292341785008158 0 -0.037285561521226855 -0.027074434577354332 0 -0.035979372656380904 -0.026361491083458522 0 -0.037258080929417112 -0.025800058409144518 0 -0.037285561521226855 -0.027074434577354332 0 -0.035979372656380904 -0.026361491083458522 0 -0.036206914101481309 -0.028217525456622195 0 -0.035979372656380904 -0.026361491083458522 0 -0.034999493565822673 -0.027217044349933616 0 -0.035509538782926571 -0.028112697340550146 0 -0.035979372656380904 -0.026361491083458522 0 -0.034999493565822673 -0.027217044349933616 0 -0.03499979081942603 -0.025310149003210325 0 -0.034999493565822673 -0.027217044349933616 0 -0.035509538782926571 -0.028112697340550146 0 -0.034999603208766737 -0.029123721526151808 0 -0.035509538782926571 -0.028112697340550146 0 -0.036206914101481309 -0.028217525456622195 0 -0.035792230150462089 -0.029271632981916641 0 -0.035979372656380904 -0.026361491083458522 0 -0.035509538782926571 -0.028112697340550146 0 -0.036206914101481309 -0.028217525456622195 0 -0.036206914101481309 -0.028217525456622195 0 -0.035792230150462089 -0.029271632981916641 0 -0.03635917502516213 -0.029620048156120366 0 -0.035792230150462089 -0.029271632981916641 0 -0.036012333118793746 -0.030470081885719823 0 -0.03635917502516213 -0.029620048156120366 0 -0.035792230150462089 -0.029271632981916641 0 -0.034999603208766737 -0.029123721526151808 0 -0.035544854619011211 -0.030165968742447247 0 -0.035509538782926571 -0.028112697340550146 0 -0.035792230150462089 -0.029271632981916641 0 -0.034999603208766737 -0.029123721526151808 0 -0.034999782592560799 -0.031029857440896706 0 -0.034999603208766737 -0.029123721526151808 0 -0.035544854619011211 -0.030165968742447247 0 -0.035792230150462089 -0.029271632981916641 0 -0.035544854619011211 -0.030165968742447247 0 -0.036012333118793746 -0.030470081885719823 0 -0.035730377587240666 -0.030952774739784947 0 -0.035544854619011211 -0.030165968742447247 0 -0.036012333118793746 -0.030470081885719823 0 -0.036190173845311098 -0.031238519821354862 0 -0.036012333118793746 -0.030470081885719823 0 -0.036262219828894854 -0.03081061483298431 0 -0.036262219828894854 -0.03081061483298431 0 -0.037293358835302583 -0.030048705628017251 0 -0.03635917502516213 -0.029620048156120366 0 -0.036012333118793746 -0.030470081885719823 0 -0.036262219828894854 -0.03081061483298431 0 -0.03635917502516213 -0.029620048156120366 0 -0.035911402705385863 -0.031901956001399299 0 -0.033172320643821605 -0.033279872891635517 0 -0.034895989269961146 -0.034839429471815744 0 -0.035911402705385863 -0.031901956001399299 0 -0.036262219828894854 -0.03081061483298431 0 -0.037293358835302583 -0.030048705628017251 0 -0.035985015078803625 -0.031897288829657304 0 -0.036071875786790275 -0.032243243756390962 0 -0.036866461813000781 -0.02886840047823323 0 -0.037293358835302583 -0.030048705628017251 0 -0.03635917502516213 -0.029620048156120366 0 -0.037587234051733129 -0.028685673220694572 0 -0.036866461813000781 -0.02886840047823323 0 -0.037293358835302583 -0.030048705628017251 0 -0.035837249727297717 -0.033176387581860894 0 -0.036071875786790275 -0.032243243756390962 0 -0.036866461813000781 -0.02886840047823323 0 -0.036206914101481309 -0.028217525456622195 0 -0.03635917502516213 -0.029620048156120366 0 -0.018552383891753985 -0.035986698042338713 0 -0.020300888416865982 -0.036462218818982726 0 -0.023058657135760219 -0.034999786264323748 0 -0.018552383891753985 -0.035986698042338713 0 -0.023058657135760219 -0.034999786264323748 0 -0.017026586155341184 -0.034999946649642011 0 -0.018184387341098791 -0.0386771967239571 0 -0.018009959316577839 -0.037630867635679445 0 -0.017325464998207599 -0.038070441069385799 0 -0.018184387341098791 -0.0386771967239571 0 -0.018966827689478306 -0.037908514163549345 0 -0.020052313860122815 -0.038694066131939243 0 -0.023258981743350806 -0.032323787119644329 0 -0.024838132387176821 -0.032713826975157415 0 -0.02431926515646542 -0.033563918446368433 0 -0.020778904029634209 -0.035455603640840667 0 -0.02225995485426998 -0.035818758177793356 0 -0.018966827689478306 -0.037908514163549345 0 -0.018698731373529336 -0.037044223405322561 0 -0.019915140075451098 -0.037498495818499129 0 -0.018966827689478306 -0.037908514163549345 0 -0.019915140075451098 -0.037498495818499129 0 -0.020052313860122815 -0.038694066131939243 0 -0.018009959316577839 -0.037630867635679445 0 -0.017888632258612085 -0.036701717986970438 0 -0.018698731373529336 -0.037044223405322561 0 -0.018184387341098791 -0.0386771967239571 0 -0.018966827689478306 -0.037908514163549345 0 -0.018009959316577839 -0.037630867635679445 0 -0.018966827689478306 -0.037908514163549345 0 -0.018009959316577839 -0.037630867635679445 0 -0.018698731373529336 -0.037044223405322561 0 -0.018009959316577839 -0.037630867635679445 0 -0.017888632258612085 -0.036701717986970438 0 -0.016980175491460737 -0.037229714420862238 0 -0.017888632258612085 -0.036701717986970438 0 -0.018552383891753985 -0.035986698042338713 0 -0.018698731373529336 -0.037044223405322561 0 -0.017888632258612085 -0.036701717986970438 0 -0.018552383891753985 -0.035986698042338713 0 -0.017468478541227125 -0.035685373833517713 0 -0.018552383891753985 -0.035986698042338713 0 -0.017026586155341184 -0.034999946649642011 0 -0.017468478541227125 -0.035685373833517713 0 -0.018552383891753985 -0.035986698042338713 0 -0.018698731373529336 -0.037044223405322561 0 -0.020300888416865982 -0.036462218818982726 0 -0.018698731373529336 -0.037044223405322561 0 -0.020300888416865982 -0.036462218818982726 0 -0.019915140075451098 -0.037498495818499129 0 -0.020300888416865982 -0.036462218818982726 0 -0.02128902575208326 -0.03677734830225278 0 -0.019915140075451098 -0.037498495818499129 0 -0.020300888416865982 -0.036462218818