<?xml version="1.0"?>
<VTKFile type="UnstructuredGrid" version="0.1" byte_order="LittleEndian">
<UnstructuredGrid>
<Piece NumberOfPoints="29506" NumberOfCells="10360">
<Points>
<DataArray type="Float64" NumberOfComponents="3" format="ascii">
-0.5 -0.5 0 -0.47696226168452538 -0.47508257674467608 0 -0.5 -0.40194873453805408 0 -0.5 -0.5 0 -0.48617485428971441 -0.49999999999999978 0 -0.47696226168452538 -0.47508257674467608 0 -0.47696226168452538 -0.47508257674467608 0 -0.46774966907933629 -0.45016515348935238 0 -0.5 -0.40194873453805408 0 -0.48617485428971441 -0.49999999999999978 0 -0.47696226168452538 -0.47508257674467608 0 -0.45664250176891619 -0.5 0 -0.48617485428971441 -0.49999999999999978 0 -0.47696226168452538 -0.47508257674467608 0 -0.47696226168452538 -0.47508257674467608 0 -0.45664250176891619 -0.5 0 -0.45700033410924101 -0.47265801169205562 0 -0.45700033410924101 -0.47265801169205562 0 -0.4418902773561707 -0.48175554229659401 0 -0.44175696065725573 -0.45628678592965521 0 -0.45664250176891619 -0.5 0 -0.4418902773561707 -0.48175554229659401 0 -0.42711014924811808 -0.5 0 -0.45664250176891619 -0.5 0 -0.45700033410924101 -0.47265801169205562 0 -0.4418902773561707 -0.48175554229659401 0 -0.44187400167307422 -0.44095767887066201 0 -0.44175696065725573 -0.45628678592965521 0 -0.42955524590135852 -0.43868986677814847 0 -0.44187400167307422 -0.44095767887066201 0 -0.44175696065725573 -0.45628678592965521 0 -0.45325755922839678 -0.44082427593074058 0 -0.47696226168452538 -0.47508257674467608 0 -0.45700033410924101 -0.47265801169205562 0 -0.46774966907933629 -0.45016515348935238 0 -0.45700033410924101 -0.47265801169205562 0 -0.44175696065725573 -0.45628678592965521 0 -0.46774966907933629 -0.45016515348935238 0 -0.46774966907933629 -0.45016515348935238 0 -0.45853707647414721 -0.42524773023402862 0 -0.46774966907933629 -0.45016515348935238 0 -0.45325755922839678 -0.44082427593074058 0 -0.45853707647414721 -0.42524773023402862 0 -0.44175696065725573 -0.45628678592965521 0 -0.46774966907933629 -0.45016515348935238 0 -0.45325755922839678 -0.44082427593074058 0 -0.47696226168452538 -0.47508257674467608 0 -0.46774966907933629 -0.45016515348935238 0 -0.46774966907933629 -0.45016515348935238 0 -0.5 -0.40194873453805408 0 -0.45853707647414721 -0.42524773023402862 0 -0.5 -0.40194873453805408 0 -0.46923291525112393 -0.40227919791892319 0 -0.45853707647414721 -0.42524773023402862 0 -0.46923291525112393 -0.40227919791892319 0 -0.47723926971091502 -0.37883738684114437 0 -0.46199791381478489 -0.39324373611997282 0 -0.5 -0.40194873453805408 0 -0.46923291525112393 -0.40227919791892319 0 -0.47723926971091502 -0.37883738684114437 0 -0.47723926971091502 -0.37883738684114437 0 -0.46063227861286149 -0.37802114421650379 0 -0.46199791381478489 -0.39324373611997282 0 -0.46063227861286149 -0.37802114421650379 0 -0.44934692324427572 -0.38602370070780923 0 -0.46063227861286149 -0.37802114421650379 0 -0.46199791381478489 -0.39324373611997282 0 -0.44934692324427572 -0.38602370070780923 0 -0.46199791381478489 -0.39324373611997282 0 -0.44934692324427572 -0.38602370070780923 0 -0.45186062385423548 -0.41581831998743252 0 -0.46923291525112393 -0.40227919791892319 0 -0.46199791381478489 -0.39324373611997282 0 -0.45186062385423548 -0.41581831998743252 0 -0.44934692324427572 -0.38602370070780923 0 -0.45186062385423548 -0.41581831998743252 0 -0.44934692324427572 -0.38602370070780923 0 -0.4281951023695143 -0.40102266493320532 0 -0.44194423197073762 -0.40414133886736581 0 -0.44934692324427572 -0.38602370070780923 0 -0.45186062385423548 -0.41581831998743252 0 -0.44194423197073762 -0.40414133886736581 0 -0.44934692324427572 -0.38602370070780923 0 -0.4281951023695143 -0.40102266493320532 0 -0.46063227861286149 -0.37802114421650379 0 -0.44934692324427572 -0.38602370070780923 0 -0.44739979342913311 -0.36294458329013229 0 -0.44934692324427572 -0.38602370070780923 0 -0.43674333185042352 -0.37641919199672741 0 -0.4281951023695143 -0.40102266493320532 0 -0.44934692324427572 -0.38602370070780923 0 -0.43674333185042352 -0.37641919199672741 0 -0.44739979342913311 -0.36294458329013229 0 -0.46923291525112393 -0.40227919791892319 0 -0.45853707647414721 -0.42524773023402862 0 -0.45186062385423548 -0.41581831998743252 0 -0.44194423197073762 -0.40414133886736581 0 -0.45186062385423548 -0.41581831998743252 0 -0.43823280816596138 -0.41379272184435001 0 -0.45186062385423548 -0.41581831998743252 0 -0.43823280816596138 -0.41379272184435001 0 -0.44292624090528621 -0.42802978684410381 0 -0.45853707647414721 -0.42524773023402862 0 -0.45186062385423548 -0.41581831998743252 0 -0.44292624090528621 -0.42802978684410381 0 -0.45325755922839678 -0.44082427593074058 0 -0.45853707647414721 -0.42524773023402862 0 -0.44292624090528621 -0.42802978684410381 0 -0.44187400167307422 -0.44095767887066201 0 -0.45325755922839678 -0.44082427593074058 0 -0.44292624090528621 -0.42802978684410381 0 -0.44187400167307422 -0.44095767887066201 0 -0.44292624090528621 -0.42802978684410381 0 -0.42955524590135852 -0.43868986677814847 0 -0.42623784173003332 -0.41995149858964231 0 -0.41099716969282479 -0.4344190863311328 0 -0.42955524590135852 -0.43868986677814847 0 -0.44292624090528621 -0.42802978684410381 0 -0.42623784173003332 -0.41995149858964231 0 -0.42955524590135852 -0.43868986677814847 0 -0.43823280816596138 -0.41379272184435001 0 -0.42623784173003332 -0.41995149858964231 0 -0.4281951023695143 -0.40102266493320532 0 -0.43823280816596138 -0.41379272184435001 0 -0.44292624090528621 -0.42802978684410381 0 -0.42623784173003332 -0.41995149858964231 0 -0.44194423197073762 -0.40414133886736581 0 -0.43823280816596138 -0.41379272184435001 0 -0.4281951023695143 -0.40102266493320532 0 -0.42623784173003332 -0.41995149858964231 0 -0.40704328149475222 -0.41602162915860041 0 -0.4281951023695143 -0.40102266493320532 0 -0.40704328149475222 -0.41602162915860041 0 -0.4281951023695143 -0.40102266493320532 0 -0.42623784173003332 -0.41995149858964231 0 -0.40704328149475222 -0.41602162915860041 0 -0.41099716969282479 -0.4344190863311328 0 -0.43674333185042352 -0.37641919199672741 0 -0.4281951023695143 -0.40102266493320532 0 -0.42089628469911827 -0.37612820863284591 0 -0.40704328149475222 -0.41602162915860041 0 -0.4281951023695143 -0.40102266493320532 0 -0.40139446399348361 -0.38776554810080882 0 -0.4281951023695143 -0.40102266493320532 0 -0.42089628469911827 -0.37612820863284591 0 -0.40139446399348361 -0.38776554810080882 0 -0.40704328149475222 -0.41602162915860041 0 -0.40139446399348361 -0.38776554810080882 0 -0.38513132625911939 -0.40249628858521058 0 -0.38513132625911939 -0.40249628858521058 0 -0.36791152532905752 -0.40939097156179138 0 -0.37494147391003102 -0.38718626649864601 0 -0.40139446399348361 -0.38776554810080882 0 -0.38513132625911939 -0.40249628858521058 0 -0.37494147391003102 -0.38718626649864601 0 -0.40139446399348361 -0.38776554810080882 0 -0.38864739629284478 -0.37358803665991203 0 -0.37494147391003102 -0.38718626649864601 0 -0.40704328149475222 -0.41602162915860041 0 -0.38589146061999008 -0.43102059338399551 0 -0.40704328149475222 -0.41602162915860041 0 -0.41099716969282479 -0.4344190863311328 0 -0.38589146061999008 -0.43102059338399551 0 -0.40704328149475222 -0.41602162915860041 0 -0.38513132625911939 -0.40249628858521058 0 -0.3825683938499011 -0.41720756293568267 0 -0.40704328149475222 -0.41602162915860041 0 -0.3825683938499011 -0.41720756293568267 0 -0.38589146061999008 -0.43102059338399551 0 -0.38513132625911939 -0.40249628858521058 0 -0.3825683938499011 -0.41720756293568267 0 -0.36791152532905752 -0.40939097156179138 0 -0.3825683938499011 -0.41720756293568267 0 -0.38589146061999008 -0.43102059338399551 0 -0.36686437554658652 -0.42710833198881581 0 -0.38589146061999008 -0.43102059338399551 0 -0.38071661097606729 -0.4504362562503097 0 -0.36473963974522788 -0.4460195576093906 0 -0.38589146061999008 -0.43102059338399551 0 -0.36473963974522788 -0.4460195576093906 0 -0.38589146061999008 -0.43102059338399551 0 -0.38071661097606729 -0.4504362562503097 0 -0.3987887142996418 -0.44824954428615721 0 -0.41099716969282479 -0.4344190863311328 0 -0.38589146061999008 -0.43102059338399551 0 -0.3987887142996418 -0.44824954428615721 0 -0.3987887142996418 -0.44824954428615721 0 -0.3834170792530821 -0.47412477214307952 0 -0.3987887142996418 -0.44824954428615721 0 -0.3834170792530821 -0.47412477214307952 0 -0.40627049207056282 -0.46605163612719602 0 -0.38071661097606729 -0.4504362562503097 0 -0.3834170792530821 -0.47412477214307952 0 -0.3690595195626194 -0.4589872873636125 0 -0.38071661097606729 -0.4504362562503097 0 -0.3987887142996418 -0.44824954428615721 0 -0.3834170792530821 -0.47412477214307952 0 -0.3834170792530821 -0.47412477214307952 0 -0.39757779672732002 -0.5 0 -0.36804544420652191 -0.50000000000000133 0 -0.3834170792530821 -0.47412477214307952 0 -0.36804544420652191 -0.50000000000000133 0 -0.3834170792530821 -0.47412477214307952 0 -0.39757779672732002 -0.5 0 -0.4093383027102272 -0.48413714586396528 0 -0.3834170792530821 -0.47412477214307952 0 -0.4093383027102272 -0.48413714586396528 0 -0.40627049207056282 -0.46605163612719602 0 -0.4093383027102272 -0.48413714586396528 0 -0.42406828670935232 -0.47348097578246062 0 -0.40627049207056282 -0.46605163612719602 0 -0.4093383027102272 -0.48413714586396528 0 -0.42711014924811808 -0.5 0 -0.42406828670935232 -0.47348097578246062 0 -0.39757779672732002 -0.5 0 -0.4093383027102272 -0.48413714586396528 0 -0.42711014924811808 -0.5 0 -0.4418902773561707 -0.48175554229659401 0 -0.42711014924811808 -0.5 0 -0.42406828670935232 -0.47348097578246062 0 -0.4418902773561707 -0.48175554229659401 0 -0.44175696065725573 -0.45628678592965521 0 -0.42406828670935232 -0.47348097578246062 0 -0.44175696065725573 -0.45628678592965521 0 -0.42406828670935232 -0.47348097578246062 0 -0.41846647411117333 -0.45258138579025292 0 -0.44175696065725573 -0.45628678592965521 0 -0.42955524590135852 -0.43868986677814847 0 -0.41846647411117333 -0.45258138579025292 0 -0.41099716969282479 -0.4344190863311328 0 -0.42955
[...]
<PointData Scalars="" Vectors="displacement," Tensors="">
<DataArray type="Float64" Name="displacement" NumberOfComponents="3" format="ascii">
-0.049995765375332554 -1.1225123224471221e-06 0 -0.049600909527439681 -0.00011362947394456199 0 -0.049997764475655099 -5.5660280163544263e-07 0 -0.049995765375332554 -1.1225123224471221e-06 0 -0.048624604784308911 1.8115434668675132e-06 0 -0.049600909527439681 -0.00011362947394456199 0 -0.049600909527439681 -0.00011362947394456199 0 -0.049285662571078338 -0.00028388601308165502 0 -0.049997764475655099 -5.5660280163544263e-07 0 -0.048611919928386059 2.7836885375291906e-06 0 -0.045207155476643557 -0.00011169822947069805 0 -0.045664909598110294 -2.1217990873655196e-06 0 -0.048616918689916563 -4.5659347425724609e-08 0 -0.047396600111867838 -0.00018258688871110993 0 -0.045207155476643557 -0.00011169822947069805 0 -0.045664909598110294 -2.1217990873655196e-06 0 -0.044521260741206145 -0.00050565953504257133 0 -0.044521260741206145 -0.00050565953504257133 0 -0.043976854464120529 -0.00041834766375232259 0 -0.044345397377814288 -0.00045942225432085715 0 -0.045664909598110294 -2.1217990873655196e-06 0 -0.043976854464120529 -0.00041834766375232259 0 -0.04271123519711869 -3.7264433474620377e-07 0 -0.045664909598110294 -2.1217990873655196e-06 0 -0.044521260741206145 -0.00050565953504257133 0 -0.043976854464120529 -0.00041834766375232259 0 -0.045249473948306272 -0.00043058897123507531 0 -0.044345397377814288 -0.00045942225432085715 0 -0.044895075709335819 -0.00031551982309514884 0 -0.045249473948306272 -0.00043058897123507531 0 -0.044345397377814288 -0.00045942225432085715 0 -0.045613192455580223 -0.0005758986591756748 0 -0.045207155476643557 -0.00011169822947069805 0 -0.044521260741206145 -0.00050565953504257133 0 -0.044749528566483371 -0.0010931641940157416 0 -0.044521260741206145 -0.00050565953504257133 0 -0.044345397377814288 -0.00045942225432085715 0 -0.044749528566483371 -0.0010931641940157416 0 -0.047106043029380235 -0.00065433801045515288 0 -0.047783883028551251 -0.00074380372555221631 0 -0.044749528566483371 -0.0010931641940157416 0 -0.045613192455580223 -0.0005758986591756748 0 -0.047827870786479397 -0.00079907800568273027 0 -0.044345397377814288 -0.00045942225432085715 0 -0.044749528566483371 -0.0010931641940157416 0 -0.045613192455580223 -0.0005758986591756748 0 -0.047396600111867838 -0.00018258688871110993 0 -0.047106043029380235 -0.00065433801045515288 0 -0.049285662571078338 -0.00028388601308165502 0 -0.049997764475655099 -5.5660280163544263e-07 0 -0.047827870786479397 -0.00079907800568273027 0 -0.049997764475655099 -5.5660280163544263e-07 0 -0.04894220911816597 -0.00045870328626595276 0 -0.047827870786479397 -0.00079907800568273027 0 -0.04894220911816597 -0.00045870328626595276 0 -0.049742041449995444 -0.00032095515409739385 0 -0.049186861622316946 -0.00033596664662966896 0 -0.049997764475655099 -5.5660280163544263e-07 0 -0.04894220911816597 -0.00045870328626595276 0 -0.049742041449995444 -0.00032095515409739385 0 -0.049742041449995444 -0.00032095515409739385 0 -0.049751593990451141 -0.00031044233604088725 0 -0.049186861622316946 -0.00033596664662966896 0 -0.04962652259239371 -0.00059126249337065439 0 -0.047708151075958029 -0.00051156253244132347 0 -0.049751593990451141 -0.00031044233604088725 0 -0.049186861622316946 -0.00033596664662966896 0 -0.049516725764833243 0.00027767813587131269 0 -0.049186861622316946 -0.00033596664662966896 0 -0.049516725764833243 0.00027767813587131269 0 -0.04760021004655246 -0.00043945475348318983 0 -0.04894220911816597 -0.00045870328626595276 0 -0.049186861622316946 -0.00033596664662966896 0 -0.04760021004655246 -0.00043945475348318983 0 -0.047708151075958029 -0.00051156253244132347 0 -0.047757276528299857 -0.00024025591047875815 0 -0.047708151075958029 -0.00051156253244132347 0 -0.045426808375437035 -0.00070537359937593693 0 -0.046916476368873389 -0.00051561286354452217 0 -0.046437592703692694 -0.00033232622618841677 0 -0.04760021004655246 -0.00043945475348318983 0 -0.046916476368873389 -0.00051561286354452217 0 -0.046437592703692694 -0.00033232622618841677 0 -0.046777803191557395 -0.00051136328516214881 0 -0.049751593990451141 -0.00031044233604088725 0 -0.049865800566048349 -0.00049205160619762115 0 -0.04964501817694697 -0.00066979616703320981 0 -0.045445807010125086 -0.0018415440067296336 0 -0.045964412152654961 -0.0011359713535457451 0 -0.044655394709601177 -0.00083236167261652898 0 -0.045445807010125086 -0.0018415440067296336 0 -0.045964412152654961 -0.0011359713535457451 0 -0.046874352253826315 -0.0017109204214244796 0 -0.04894220911816597 -0.00045870328626595276 0 -0.047827870786479397 -0.00079907800568273027 0 -0.04760021004655246 -0.00043945475348318983 0 -0.046916476368873389 -0.00051561286354452217 0 -0.04760021004655246 -0.00043945475348318983 0 -0.046703800924054906 -0.00050334152092697737 0 -0.04760021004655246 -0.00043945475348318983 0 -0.046703800924054906 -0.00050334152092697737 0 -0.046355084256881361 -0.00040397076354260476 0 -0.047827870786479397 -0.00079907800568273027 0 -0.04760021004655246 -0.00043945475348318983 0 -0.046355084256881361 -0.00040397076354260476 0 -0.045613192455580223 -0.0005758986591756748 0 -0.047827870786479397 -0.00079907800568273027 0 -0.046355084256881361 -0.00040397076354260476 0 -0.045249473948306272 -0.00043058897123507531 0 -0.045613192455580223 -0.0005758986591756748 0 -0.046355084256881361 -0.00040397076354260476 0 -0.045249473948306272 -0.00043058897123507531 0 -0.046355084256881361 -0.00040397076354260476 0 -0.044895075709335819 -0.00031551982309514884 0 -0.045852875236820689 -0.00038458056434723304 0 -0.044219820840384221 -0.00021027423411332466 0 -0.044895075709335819 -0.00031551982309514884 0 -0.046355084256881361 -0.00040397076354260476 0 -0.045852875236820689 -0.00038458056434723304 0 -0.044895075709335819 -0.00031551982309514884 0 -0.046703800924054906 -0.00050334152092697737 0 -0.045852875236820689 -0.00038458056434723304 0 -0.046777803191557395 -0.00051136328516214881 0 -0.046703800924054906 -0.00050334152092697737 0 -0.046355084256881361 -0.00040397076354260476 0 -0.045852875236820689 -0.00038458056434723304 0 -0.046916476368873389 -0.00051561286354452217 0 -0.046703800924054906 -0.00050334152092697737 0 -0.046777803191557395 -0.00051136328516214881 0 -0.045852875236820689 -0.00038458056434723304 0 -0.045363073839682098 7.589211418763035e-05 0 -0.046777803191557395 -0.00051136328516214881 0 -0.044656471857344948 -0.00016622451080897324 0 -0.045426808375437035 -0.00070537359937593693 0 -0.045852875236820689 -0.00038458056434723304 0 -0.045363073839682098 7.589211418763035e-05 0 -0.044219820840384221 -0.00021027423411332466 0 -0.045964412152654961 -0.0011359713535457451 0 -0.044655394709601177 -0.00083236167261652898 0 -0.045888739954409855 -0.0003502408425486021 0 -0.043877431161656343 -0.00026628153865221191 0 -0.044655394709601177 -0.00083236167261652898 0 -0.045185125988936967 0.00021179581158072927 0 -0.044655394709601177 -0.00083236167261652898 0 -0.045888739954409855 -0.0003502408425486021 0 -0.045185125988936967 0.00021179581158072927 0 -0.043877431161656343 -0.00026628153865221191 0 -0.045185125988936967 0.00021179581158072927 0 -0.044395782803231885 0.00054819063363113069 0 -0.044395782803231885 0.00054819063363113069 0 -0.043992196350103194 0.0011641017189214932 0 -0.045115593806763991 0.001062263050302807 0 -0.045185125988936967 0.00021179581158072927 0 -0.044395782803231885 0.00054819063363113069 0 -0.045115593806763991 0.001062263050302807 0 -0.045185125988936967 0.00021179581158072927 0 -0.045764376353520111 0.00076777155712007836 0 -0.045115593806763991 0.001062263050302807 0 -0.044656471857344948 -0.00016622451080897324 0 -0.042997730309034761 0.00014671018592880158 0 -0.045363073839682098 7.589211418763035e-05 0 -0.044219820840384221 -0.00021027423411332466 0 -0.043345296379543458 0.00026735473106900219 0 -0.043877431161656343 -0.00026628153865221191 0 -0.044395782803231885 0.00054819063363113069 0 -0.043580130934710561 0.00043570413236905308 0 -0.043877431161656343 -0.00026628153865221191 0 -0.043580130934710561 0.00043570413236905308 0 -0.042796411577140911 9.5711253283960719e-05 0 -0.044395782803231885 0.00054819063363113069 0 -0.043580130934710561 0.00043570413236905308 0 -0.043992196350103194 0.0011641017189214932 0 -0.043580130934710561 0.00043570413236905308 0 -0.042796411577140911 9.5711253283960719e-05 0 -0.042785150286922764 0.00098265839955912187 0 -0.043345296379543458 0.00026735473106900219 0 -0.041181004439737171 8.226723584703971e-05 0 -0.040741309539959282 0.00068881397076096796 0 -0.042997730309034761 0.00014671018592880158 0 -0.041073997034006847 0.00075756860218399269 0 -0.043345296379543458 0.00026735473106900219 0 -0.041181004439737171 8.226723584703971e-05 0 -0.042707460513946485 -0.00032026123103295884 0 -0.044219820840384221 -0.00021027423411332466 0 -0.043345296379543458 0.00026735473106900219 0 -0.042707460513946485 -0.00032026123103295884 0 -0.042369219186792956 -0.00032836800696555698 0 -0.039887999772012302 -8.628541681258002e-05 0 -0.042707460513946485 -0.00032026123103295884 0 -0.041471184403675906 0.00047707599907061685 0 -0.042628931937954063 -0.00016722981911964399 0 -0.041181004439737171 8.226723584703971e-05 0 -0.038189186306262737 -0.00060112110182845391 0 -0.039405423352050335 0.00033842801264669331 0 -0.041181004439737171 8.226723584703971e-05 0 -0.042707460513946485 -0.00032026123103295884 0 -0.038189186306262737 -0.00060112110182845391 0 -0.041471184403675906 0.00047707599907061685 0 -0.039757806858059783 -1.2458416978022983e-06 0 -0.03680967759213169 3.3524610903944304e-06 0 -0.039887999772012302 -8.628541681258002e-05 0 -0.036805630803989506 -7.3348351215515019e-08 0 -0.041471184403675906 0.00047707599907061685 0 -0.039757806858059783 -1.2458416978022983e-06 0 -0.041844201886000729 -0.00025299154947976566 0 -0.041471184403675906 0.00047707599907061685 0 -0.041844201886000729 -0.00025299154947976566 0 -0.042628931937954063 -0.00016722981911964399 0 -0.041844201886000729 -0.00025299154947976566 0 -0.043137627398203121 -0.00034302869811033722 0 -0.042628931937954063 -0.00016722981911964399 0 -0.041844201886000729 -0.00025299154947976566 0 -0.04271123519711869 -3.7264433474620377e-07 0 -0.043137627398203121 -0.00034302869811033722 0 -0.039757806858059783 -1.2458416978022983e-06 0 -0.041844201886000729 -0.00025299154947976566 0 -0.04271123519711869 -3.7264433474620377e-07 0 -0.043976854464120529 -0.00041834766375232259 0 -0.04271123519711869 -3.7264433474620377e-07 0 -0.043137627398203121 -0.00034302869811033722 0 -0.043976854464120529 -0.00041834766375232259 0 -0.044345397377814288 -0.00045942225432085715 0 -0.043137627398203121 -0.00034302869811033722 0 -0.044345397377814288 -0.00045942225432085715 0 -0.043137627398203121 -0.00034302869811033722 0 -0.043631464856802596 -0.00024321885272626253 0 -0.044345397377814288 -0.00045942225432085715 0 -0.044895075709335819 -0.00031551982309514884 0 -0.043631464856802596 -0.00024321885272626253 0 -0.044219820840384221 -0.00021027423411332466 0 -0.044895075709335819 -0.00031551982309514884 0 -0.043631464856802596 -0.00024321885272626253 0 -0.044219820840384221 -0.00021027423411332466 0 -0.042707460513946485 -0.00032026123103295884 0 -0.043631464856802596 -0.00024321885272626253 0 -0.042707460513946485 -0.00032026123103295884 0 -0.043631464856802596 -0.00024321885272626253 0 -0.042628931937954063 -0.00016722981911964399 0 -0.043137627398203121 -0.00034302869811033722 0 -0.043631464856802596 -0.00024321885272626253 0 -0.042628931937954063 -0.00016722981911964399 0 -0.049225440534017964 0.00019648481559637399 0 -0.049687790842324046 -1.2884741598964793e-05 0 -0.049033640957907285 3.2878859799268105e-05 0 -0.049225440534017964 0.00019648481559637399 0 -0.049687790842324046 -1.2884741598964793e-05 0 -0.049508179065714197 8.2716689579873833e-05 0 -0.049225440534017964 0.00019648481559637399 0 -0.049033640957907285 3.2878859799268105e-05 0 -0.048553341175618582 0.00041879902363442685 0 -0.049687790842324046 -1.2884741598964793e-05 0 -0.049998346611312902 -2.2507389905765163e-07 0 -0.049946104222896859 -8.7517849877046023e-06 0 -0.049687790842324046 -1.2884741598964793e-05 0 -0.049998346611312902 -2.2507389905765163e-07 0 -0.049552454143235065 -0.0001758104406641885 0 -0.049687790842324046 -1.2884741598964793e-05 0 -0.049552454143235065 -0.0001758104406641885 0 -0.049033640957907285 3.2878859799268105e-05 0 -0.049998346611312902 -2.2507389905765163e-07 0 -0.04972147896429148 -0.00018840430027824409 0 -0.049999703040644633 -2.9369313088183986e-07 0 -0.049998346611312902 -2.2507389905765163e-07 0 -0.049552454143235065 -0.0001758104406641885 0 -0.04972147896429148 -0.00018840430027824409 0 -0.049452402748135345 -0.00020119175600619035 0 -0.049023020717623114 -0.00027955459559094278 0 -0.049552454143235065 -0.0001758104406641885 0 -0.04972147896429148 -0.00018840430027824409 0 -0.049558067819086067 -0.00042527217600593398 0 -0.049552454143235065 -0.0001758104406641885 0 -0.048479943935891598 -0.00017585513640111733 0 -0.049033640957907285 3.2878859799268105e-05 0 -0.049033640957907285 3.2878859799268105e-05 0 -0.048154738566527792 0.00025338380358715887 0 -0.048553341175618582 0.00041879902363442685 0 -0.048479943935891598 -0.00017585513640111733 0 -0.049033640957907285 3.2878859799268105e-05 0 -0.048154738566527792 0.00025338380358715887 0 -0.048479943935891598 -0.00017585513640111733 0 -0.047664418361277189 3.5253717623031287e-05 0 -0.048154738566527792 0.00025338380358715887 0 -0.049997764475655099 -5.5660280163544263e-07 0 -0.049742041449995444 -0.00032095515409739385 0 -0.049999703040644633 -2.9369313088183986e-07 0 -0.049023020717623114 -0.00027955459559094278 0 -0.04853064037986797 -0.00031817597267898111 0 -0.049398955256267155 -0.00070853197456864235 0 -0.049009032257915641 -0.00090806324878450826 0 -0.049528459852019771 -0.00046710784101826553 0 -0.049009032257915641 -0.00090806324878450826 0 -0.049528459852019771 -0.00046710784101826553 0 -0.04973585717598196 -0.00027333781561551199 0 -0.049558067819086067 -0.00042527217600593398 0 -0.049398955256267155 -0.00070853197456864235 0 -0.049528459852019771 -0.00046710784101826553 0 -0.049528459852019771 -0.00046710784101826553 0 -0.049999703040644633 -2.9369313088183986e-07 0 -0.04973585717598196 -0.00027333781561551199 0 -0.04972147896429148 -0.00018840430027824409 0 -0.049528459852019771 -0.00046710784101826553 0 -0.049999703040644633 -2.9369313088183986e-07 0 -0.04972147896429148 -0.00018840430027824409 0 -0.049558067819086067 -0.00042527217600593398 0 -0.049528459852019771 -0.00046710784101826553 0 -0.049742041449995444 -0.00032095515409739385 0 -0.049999703040644633 -2.9369313088183986e-07 0 -0.04973585717598196 -0.00027333781561551199 0 -0.049742041449995444 -0.00032095515409739385 0 -0.04973585717598196 -0.00027333781561551199 0 -0.049712941485541041 -0.00039038190618897643 0 -0.049742041449995444 -0.00032095515409739385 0 -0.049751593990451141 -0.00031044233604088725 0 -0.049712941485541041 -0.00039038190618897643 0 -0.049751593990451141 -0.00031044233604088725 0 -0.049712941485541041 -0.00039038190618897643 0 -0.04964501817694697 -0.00066979616703320981 0 -0.049009032257915641 -0.00090806324878450826 0 -0.04973585717598196 -0.00027333781561551199 0 -0.049712941485541041 -0.00039038190618897643 0 -0.049009032257915641 -0.00090806324878450826 0 -0.046874352253826315 -0.0017109204214244796 0 -0.047145038859736026 -0.00060268593890237983 0 -0.049009032257915641 -0.00090806324878450826 0 -0.049712941485541041 -0.00039038190618897643 0 -0.04964501817694697 -0.00066979616703320981 0 -0.048915200610211151 -0.00096038285595307466 0 -0.04822836998369933 -0.0012131420420880548 0 -0.045964412152654961 -0.0011359713535457451 0 -0.046874352253826315 -0.0017109204214244796 0 -0.047145038859736026 -0.00060268593890237983 0 -0.047708151075958029 -0.00051156253244132347 0 -0.04822836998369933 -0.0012131420420880548 0 -0.045964412152654961 -0.0011359713535457451 0 -0.045888739954409855 -0.0003502408425486021 0 -0.047145038859736026 -0.00060268593890237983 0 -0.049009032257915641 -0.00090806324878450826 0 -0.047145038859736026 -0.00060268593890237983 0 -0.048490630890114302 -0.00018203362348134518 0 -0.047145038859736026 -0.00060268593890237983 0 -0.046619735193781625 0.00048681868448396368 0 -0.048490630890114302 -0.00018203362348134518 0 -0.046619735193781625 0.00048681868448396368 0 -0.047079213885997603 0.00065524743317352903 0 -0.047031168505775274 0.00033529678553878225 0 -0.046769621530174436 0.00048495871663602397 0 -0.047733013816068183 5.0780006217291078e-05 0 -0.045888739954409855 -0.0003502408425486021 0 -0.047145038859736026 -0.00060268593890237983 0 -0.046619735193781625 0.00048681868448396368 0 -0.045888739954409855 -0.0003502408425486021 0 -0.045185125988936967 0.00021179581158072927 0 -0.046619735193781625 0.00048681868448396368 0 -0.045185125988936967 0.00021179581158072927 0 -0.045764376353520111 0.00076777155712007836 0 -0.046619735193781625 0.00048681868448396368 0 -0.046619735193781625 0.00048681868448396368 0 -0.046790266929668894 0.0010013782403344429 0 -0.046076101876171983 0.0012381197200308628 0 -0.045764376353520111 0.00076777155712007836 0 -0.046619735193781625 0.00048681868448396368 0 -0.046076101876171983 0.0012381197200308628 0 -0.045764376353520111 0.00076777155712007836 0 -0.046076101876171983 0.0012381197200308628 0 -0.045115593806763991 0.001062263050302807 0 -0.046619735193781625 0.00048681868448396368 0 -0.047079213885997603 0.00065524743317352903 0 -0.046790266929668894 0.0010013782403344429 0 -0.047079213885997603 0.00065524743317352903 0 -0.046790266929668894 0.0010013782403344429 0 -0.047379997421290461 0.00093700755847550283 0 -0.046790266929668894 0.0010013782403344429 0 -0.047379997421290461 0.00093700755847550283 0 -0.047153283891043063 0.0013338784124146898 0 -0.047079213885997603 0.00065524743317352903 0 -0.047379997421290461 0.00093700755847550283 0 -0.047574400931367909 0.00051530051260536831 0 -0.047079213885997603 0.00065524743317352903 0 -0.047574400931367909 0.00051530051260536831 0 -0.047031168505775274 0.00033529678553878225 0 -0.04853064037986797 -0.00031817597267898111 0 -0.047733013816068183 5.0780006217291078e-05 0 -0.049398955256267155 -0.00070853197456864235 0 -0.049009032257915641 -0.00090806324878450826 0 -0.048490630890114302 -0.00018203362348134518 0 -0.047664418361277189 3.5253717623031287e-05 0 -0.047574400931367909 0.00051530051260536831 0 -0.047031168505775274 0.00033529678553878225 0 -0.047664418361277189 3.5253717623031287e-05 0 -0.047574400931367909 0.00051530051260536831 0 -0.048154738566527792 0.00025338380358715887 0 -0.048154738566527792 0.00025338380358715887 0 -0.048553341175618582 0.00041879902363442685 0 -0.04792521087070889 0.00071300365432943387 0 -0.048512607058237942 0.00041309276416932081 0 -0.04843715810463918 0.00070747054841851359 0 -0.048553341175618582 0.00041879902363442685 0 -0.04792521087070889 0.00071300365432943387 0 -0.048170325049992635 0.00086878912723684044 0 -0.047574400931367909 0.00051530051260536831 0 -0.048154738566527792 0.00025338380358715887 0 -0.04792521087070889 0.00071300365432943387 0 -0.047379997421290461 0.00093700755847550283 0 -0.047574400931367909 0.00051530051260536831 0 -0.04792521087070889 0.00071300365432943387 0 -0.047379997421290461 0.00093700755847550283 0 -0.04792521087070889 0.00071300365432943387 0 -0.047650195347953728 0.0011498803737214787 0 -0.047379997421290461 0.00093700755847550283 0 -0.047650195347953728 0.0011498803737214787 0 -0.047153283891043063 0.0013338784124146898 0 -0.047650195347953728 0.0011498803737214787 0 -0.048170325049992635 0.00086878912723684044 0 -0.047806984020716585 0.0013068223222911098 0 -0.04792521087070889 0.00071300365432943387 0 -0.047650195347953728 0.0011498803737214787 0 -0.048170325049992635 0.00086878912723684044 0 -0.048614425857306132 0.00058003111307815356 0 -0.048720614231926654 0.000563805