<?xml version="1.0"?>
<VTKFile type="UnstructuredGrid" version="0.1" byte_order="LittleEndian">
<UnstructuredGrid>
<Piece NumberOfPoints="29506" NumberOfCells="10360">
<Points>
<DataArray type="Float64" NumberOfComponents="3" format="ascii">
-0.5 -0.5 0 -0.47696226168452538 -0.47508257674467608 0 -0.5 -0.40194873453805408 0 -0.5 -0.5 0 -0.48617485428971441 -0.49999999999999978 0 -0.47696226168452538 -0.47508257674467608 0 -0.47696226168452538 -0.47508257674467608 0 -0.46774966907933629 -0.45016515348935238 0 -0.5 -0.40194873453805408 0 -0.48617485428971441 -0.49999999999999978 0 -0.47696226168452538 -0.47508257674467608 0 -0.45664250176891619 -0.5 0 -0.48617485428971441 -0.49999999999999978 0 -0.47696226168452538 -0.47508257674467608 0 -0.47696226168452538 -0.47508257674467608 0 -0.45664250176891619 -0.5 0 -0.45700033410924101 -0.47265801169205562 0 -0.45700033410924101 -0.47265801169205562 0 -0.4418902773561707 -0.48175554229659401 0 -0.44175696065725573 -0.45628678592965521 0 -0.45664250176891619 -0.5 0 -0.4418902773561707 -0.48175554229659401 0 -0.42711014924811808 -0.5 0 -0.45664250176891619 -0.5 0 -0.45700033410924101 -0.47265801169205562 0 -0.4418902773561707 -0.48175554229659401 0 -0.44187400167307422 -0.44095767887066201 0 -0.44175696065725573 -0.45628678592965521 0 -0.42955524590135852 -0.43868986677814847 0 -0.44187400167307422 -0.44095767887066201 0 -0.44175696065725573 -0.45628678592965521 0 -0.45325755922839678 -0.44082427593074058 0 -0.47696226168452538 -0.47508257674467608 0 -0.45700033410924101 -0.47265801169205562 0 -0.46774966907933629 -0.45016515348935238 0 -0.45700033410924101 -0.47265801169205562 0 -0.44175696065725573 -0.45628678592965521 0 -0.46774966907933629 -0.45016515348935238 0 -0.46774966907933629 -0.45016515348935238 0 -0.45853707647414721 -0.42524773023402862 0 -0.46774966907933629 -0.45016515348935238 0 -0.45325755922839678 -0.44082427593074058 0 -0.45853707647414721 -0.42524773023402862 0 -0.44175696065725573 -0.45628678592965521 0 -0.46774966907933629 -0.45016515348935238 0 -0.45325755922839678 -0.44082427593074058 0 -0.47696226168452538 -0.47508257674467608 0 -0.46774966907933629 -0.45016515348935238 0 -0.46774966907933629 -0.45016515348935238 0 -0.5 -0.40194873453805408 0 -0.45853707647414721 -0.42524773023402862 0 -0.5 -0.40194873453805408 0 -0.46923291525112393 -0.40227919791892319 0 -0.45853707647414721 -0.42524773023402862 0 -0.46923291525112393 -0.40227919791892319 0 -0.47723926971091502 -0.37883738684114437 0 -0.46199791381478489 -0.39324373611997282 0 -0.5 -0.40194873453805408 0 -0.46923291525112393 -0.40227919791892319 0 -0.47723926971091502 -0.37883738684114437 0 -0.47723926971091502 -0.37883738684114437 0 -0.46063227861286149 -0.37802114421650379 0 -0.46199791381478489 -0.39324373611997282 0 -0.46063227861286149 -0.37802114421650379 0 -0.44934692324427572 -0.38602370070780923 0 -0.46063227861286149 -0.37802114421650379 0 -0.46199791381478489 -0.39324373611997282 0 -0.44934692324427572 -0.38602370070780923 0 -0.46199791381478489 -0.39324373611997282 0 -0.44934692324427572 -0.38602370070780923 0 -0.45186062385423548 -0.41581831998743252 0 -0.46923291525112393 -0.40227919791892319 0 -0.46199791381478489 -0.39324373611997282 0 -0.45186062385423548 -0.41581831998743252 0 -0.44934692324427572 -0.38602370070780923 0 -0.45186062385423548 -0.41581831998743252 0 -0.44934692324427572 -0.38602370070780923 0 -0.4281951023695143 -0.40102266493320532 0 -0.44194423197073762 -0.40414133886736581 0 -0.44934692324427572 -0.38602370070780923 0 -0.45186062385423548 -0.41581831998743252 0 -0.44194423197073762 -0.40414133886736581 0 -0.44934692324427572 -0.38602370070780923 0 -0.4281951023695143 -0.40102266493320532 0 -0.46063227861286149 -0.37802114421650379 0 -0.44934692324427572 -0.38602370070780923 0 -0.44739979342913311 -0.36294458329013229 0 -0.44934692324427572 -0.38602370070780923 0 -0.43674333185042352 -0.37641919199672741 0 -0.4281951023695143 -0.40102266493320532 0 -0.44934692324427572 -0.38602370070780923 0 -0.43674333185042352 -0.37641919199672741 0 -0.44739979342913311 -0.36294458329013229 0 -0.46923291525112393 -0.40227919791892319 0 -0.45853707647414721 -0.42524773023402862 0 -0.45186062385423548 -0.41581831998743252 0 -0.44194423197073762 -0.40414133886736581 0 -0.45186062385423548 -0.41581831998743252 0 -0.43823280816596138 -0.41379272184435001 0 -0.45186062385423548 -0.41581831998743252 0 -0.43823280816596138 -0.41379272184435001 0 -0.44292624090528621 -0.42802978684410381 0 -0.45853707647414721 -0.42524773023402862 0 -0.45186062385423548 -0.41581831998743252 0 -0.44292624090528621 -0.42802978684410381 0 -0.45325755922839678 -0.44082427593074058 0 -0.45853707647414721 -0.42524773023402862 0 -0.44292624090528621 -0.42802978684410381 0 -0.44187400167307422 -0.44095767887066201 0 -0.45325755922839678 -0.44082427593074058 0 -0.44292624090528621 -0.42802978684410381 0 -0.44187400167307422 -0.44095767887066201 0 -0.44292624090528621 -0.42802978684410381 0 -0.42955524590135852 -0.43868986677814847 0 -0.42623784173003332 -0.41995149858964231 0 -0.41099716969282479 -0.4344190863311328 0 -0.42955524590135852 -0.43868986677814847 0 -0.44292624090528621 -0.42802978684410381 0 -0.42623784173003332 -0.41995149858964231 0 -0.42955524590135852 -0.43868986677814847 0 -0.43823280816596138 -0.41379272184435001 0 -0.42623784173003332 -0.41995149858964231 0 -0.4281951023695143 -0.40102266493320532 0 -0.43823280816596138 -0.41379272184435001 0 -0.44292624090528621 -0.42802978684410381 0 -0.42623784173003332 -0.41995149858964231 0 -0.44194423197073762 -0.40414133886736581 0 -0.43823280816596138 -0.41379272184435001 0 -0.4281951023695143 -0.40102266493320532 0 -0.42623784173003332 -0.41995149858964231 0 -0.40704328149475222 -0.41602162915860041 0 -0.4281951023695143 -0.40102266493320532 0 -0.40704328149475222 -0.41602162915860041 0 -0.4281951023695143 -0.40102266493320532 0 -0.42623784173003332 -0.41995149858964231 0 -0.40704328149475222 -0.41602162915860041 0 -0.41099716969282479 -0.4344190863311328 0 -0.43674333185042352 -0.37641919199672741 0 -0.4281951023695143 -0.40102266493320532 0 -0.42089628469911827 -0.37612820863284591 0 -0.40704328149475222 -0.41602162915860041 0 -0.4281951023695143 -0.40102266493320532 0 -0.40139446399348361 -0.38776554810080882 0 -0.4281951023695143 -0.40102266493320532 0 -0.42089628469911827 -0.37612820863284591 0 -0.40139446399348361 -0.38776554810080882 0 -0.40704328149475222 -0.41602162915860041 0 -0.40139446399348361 -0.38776554810080882 0 -0.38513132625911939 -0.40249628858521058 0 -0.38513132625911939 -0.40249628858521058 0 -0.36791152532905752 -0.40939097156179138 0 -0.37494147391003102 -0.38718626649864601 0 -0.40139446399348361 -0.38776554810080882 0 -0.38513132625911939 -0.40249628858521058 0 -0.37494147391003102 -0.38718626649864601 0 -0.40139446399348361 -0.38776554810080882 0 -0.38864739629284478 -0.37358803665991203 0 -0.37494147391003102 -0.38718626649864601 0 -0.40704328149475222 -0.41602162915860041 0 -0.38589146061999008 -0.43102059338399551 0 -0.40704328149475222 -0.41602162915860041 0 -0.41099716969282479 -0.4344190863311328 0 -0.38589146061999008 -0.43102059338399551 0 -0.40704328149475222 -0.41602162915860041 0 -0.38513132625911939 -0.40249628858521058 0 -0.3825683938499011 -0.41720756293568267 0 -0.40704328149475222 -0.41602162915860041 0 -0.3825683938499011 -0.41720756293568267 0 -0.38589146061999008 -0.43102059338399551 0 -0.38513132625911939 -0.40249628858521058 0 -0.3825683938499011 -0.41720756293568267 0 -0.36791152532905752 -0.40939097156179138 0 -0.3825683938499011 -0.41720756293568267 0 -0.38589146061999008 -0.43102059338399551 0 -0.36686437554658652 -0.42710833198881581 0 -0.38589146061999008 -0.43102059338399551 0 -0.38071661097606729 -0.4504362562503097 0 -0.36473963974522788 -0.4460195576093906 0 -0.38589146061999008 -0.43102059338399551 0 -0.36473963974522788 -0.4460195576093906 0 -0.38589146061999008 -0.43102059338399551 0 -0.38071661097606729 -0.4504362562503097 0 -0.3987887142996418 -0.44824954428615721 0 -0.41099716969282479 -0.4344190863311328 0 -0.38589146061999008 -0.43102059338399551 0 -0.3987887142996418 -0.44824954428615721 0 -0.3987887142996418 -0.44824954428615721 0 -0.3834170792530821 -0.47412477214307952 0 -0.3987887142996418 -0.44824954428615721 0 -0.3834170792530821 -0.47412477214307952 0 -0.40627049207056282 -0.46605163612719602 0 -0.38071661097606729 -0.4504362562503097 0 -0.3834170792530821 -0.47412477214307952 0 -0.3690595195626194 -0.4589872873636125 0 -0.38071661097606729 -0.4504362562503097 0 -0.3987887142996418 -0.44824954428615721 0 -0.3834170792530821 -0.47412477214307952 0 -0.3834170792530821 -0.47412477214307952 0 -0.39757779672732002 -0.5 0 -0.36804544420652191 -0.50000000000000133 0 -0.3834170792530821 -0.47412477214307952 0 -0.36804544420652191 -0.50000000000000133 0 -0.3834170792530821 -0.47412477214307952 0 -0.39757779672732002 -0.5 0 -0.4093383027102272 -0.48413714586396528 0 -0.3834170792530821 -0.47412477214307952 0 -0.4093383027102272 -0.48413714586396528 0 -0.40627049207056282 -0.46605163612719602 0 -0.4093383027102272 -0.48413714586396528 0 -0.42406828670935232 -0.47348097578246062 0 -0.40627049207056282 -0.46605163612719602 0 -0.4093383027102272 -0.48413714586396528 0 -0.42711014924811808 -0.5 0 -0.42406828670935232 -0.47348097578246062 0 -0.39757779672732002 -0.5 0 -0.4093383027102272 -0.48413714586396528 0 -0.42711014924811808 -0.5 0 -0.4418902773561707 -0.48175554229659401 0 -0.42711014924811808 -0.5 0 -0.42406828670935232 -0.47348097578246062 0 -0.4418902773561707 -0.48175554229659401 0 -0.44175696065725573 -0.45628678592965521 0 -0.42406828670935232 -0.47348097578246062 0 -0.44175696065725573 -0.45628678592965521 0 -0.42406828670935232 -0.47348097578246062 0 -0.41846647411117333 -0.45258138579025292 0 -0.44175696065725573 -0.45628678592965521 0 -0.42955524590135852 -0.43868986677814847 0 -0.41846647411117333 -0.45258138579025292 0 -0.41099716969282479 -0.4344190863311328 0 -0.42955
[...]
<PointData Scalars="" Vectors="displacement," Tensors="">
<DataArray type="Float64" Name="displacement" NumberOfComponents="3" format="ascii">
-7.2722292399313045e-08 -0.049999274494287697 0 -0.00018703604607533069 -0.047043103079341071 0 -6.0095273996599388e-07 -0.040196058434485246 0 -7.2722292399313045e-08 -0.049999274494287697 0 -8.9807217745871893e-08 -0.049996138875286526 0 -0.00018703604607533069 -0.047043103079341071 0 -0.00018703604607533069 -0.047043103079341071 0 -0.00035625629958353457 -0.044878614689955396 0 -6.0095273996599388e-07 -0.040196058434485246 0 -1.7363525668996581e-07 -0.050000259838170462 0 -0.00035946552788092458 -0.049366284722295269 0 -9.1445697098427925e-08 -0.049998457423513977 0 -3.0429543407920578e-07 -0.049999247163677672 0 -0.00038057909351511002 -0.048166661691301467 0 -0.00035946552788092458 -0.049366284722295269 0 -9.1445697098427925e-08 -0.049998457423513977 0 -0.00048981690369716659 -0.048808204282886888 0 -0.00048981690369716659 -0.048808204282886888 0 -0.00036262060435318817 -0.049207143923568106 0 -0.00080220236401834066 -0.047874680016711919 0 -9.1445697098427925e-08 -0.049998457423513977 0 -0.00036262060435318817 -0.049207143923568106 0 -4.0533423771200595e-07 -0.049998958022920828 0 -9.1445697098427925e-08 -0.049998457423513977 0 -0.00048981690369716659 -0.048808204282886888 0 -0.00036262060435318817 -0.049207143923568106 0 -0.00075109467846489928 -0.047050192263018403 0 -0.00080220236401834066 -0.047874680016711919 0 -0.00071797792906566431 -0.047653278623834901 0 -0.00075109467846489928 -0.047050192263018403 0 -0.00080220236401834066 -0.047874680016711919 0 -0.00085373003639630483 -0.046526894528617337 0 -0.00035946552788092458 -0.049366284722295269 0 -0.00048981690369716659 -0.048808204282886888 0 -0.00091687130319732606 -0.047643005746332713 0 -0.00048981690369716659 -0.048808204282886888 0 -0.00080220236401834066 -0.047874680016711919 0 -0.00091687130319732606 -0.047643005746332713 0 -0.00052794689881939711 -0.04619940975807621 0 -0.00015807802145071756 -0.044506096000087855 0 -0.00091687130319732606 -0.047643005746332713 0 -0.00085373003639630483 -0.046526894528617337 0 -0.00017374536320204179 -0.044060562464176979 0 -0.00080220236401834066 -0.047874680016711919 0 -0.00091687130319732606 -0.047643005746332713 0 -0.00085373003639630483 -0.046526894528617337 0 -0.00038057909351511002 -0.048166661691301467 0 -0.00052794689881939711 -0.04619940975807621 0 -0.00035625629958353457 -0.044878614689955396 0 -6.0095273996599388e-07 -0.040196058434485246 0 -0.00017374536320204179 -0.044060562464176979 0 -6.0095273996599388e-07 -0.040196058434485246 0 0.00016423445847830843 -0.04139123456420727 0 -0.00017374536320204179 -0.044060562464176979 0 0.00016423445847830843 -0.04139123456420727 0 -1.3625802761129822e-05 -0.038776366760084315 0 0.00023560084875986391 -0.040709568911032869 0 -6.0095273996599388e-07 -0.040196058434485246 0 0.00016423445847830843 -0.04139123456420727 0 -1.3625802761129822e-05 -0.038776366760084315 0 -1.3625802761129822e-05 -0.038776366760084315 0 0.00020589460406022787 -0.038868649298961708 0 0.00023560084875986391 -0.040709568911032869 0 0.0006067908426935502 -0.038866740387259506 0 0.00027531030461970963 -0.040723995986791356 0 0.00020589460406022787 -0.038868649298961708 0 0.00023560084875986391 -0.040709568911032869 0 0.0003069252086757911 -0.040517131633597575 0 0.00023560084875986391 -0.040709568911032869 0 0.0003069252086757911 -0.040517131633597575 0 0.00028365049997606509 -0.043978132285806465 0 0.00016423445847830843 -0.04139123456420727 0 0.00023560084875986391 -0.040709568911032869 0 0.00028365049997606509 -0.043978132285806465 0 0.00027531030461970963 -0.040723995986791356 0 0.0010207163225394052 -0.0442956964608682 0 0.00027531030461970963 -0.040723995986791356 0 -0.0010680856222672216 -0.042860345962900372 0 0.001785479702699581 -0.045562655459169814 0 0.0041143499555016611 -0.044633744432830851 0 0.00028365049997606509 -0.043978132285806465 0 0.001785479702699581 -0.045562655459169814 0 0.0041143499555016611 -0.044633744432830851 0 0.0019687211115717008 -0.047224251960465875 0 0.00020589460406022787 -0.038868649298961708 0 0.00088785608384252257 -0.037919500586372869 0 -0.00048479743815740746 -0.037151732309506275 0 -0.0035358630426934384 -0.037111427783012005 0 -0.0030715302122139771 -0.037710870437287734 0 -0.0041646365452735791 -0.038544571696423446 0 -0.0035358630426934384 -0.037111427783012005 0 -0.0030715302122139771 -0.037710870437287734 0 -0.0024518595947558581 -0.03689154039497955 0 0.00016423445847830843 -0.04139123456420727 0 -0.00017374536320204179 -0.044060562464176979 0 0.00028365049997606509 -0.043978132285806465 0 0.001785479702699581 -0.045562655459169814 0 0.00028365049997606509 -0.043978132285806465 0 0.00067155528342722408 -0.046183410002731115 0 0.00028365049997606509 -0.043978132285806465 0 0.00067155528342722408 -0.046183410002731115 0 -0.00042489449939518681 -0.046178475318293492 0 -0.00017374536320204179 -0.044060562464176979 0 0.00028365049997606509 -0.043978132285806465 0 -0.00042489449939518681 -0.046178475318293492 0 -0.00085373003639630483 -0.046526894528617337 0 -0.00017374536320204179 -0.044060562464176979 0 -0.00042489449939518681 -0.046178475318293492 0 -0.00075109467846489928 -0.047050192263018403 0 -0.00085373003639630483 -0.046526894528617337 0 -0.00042489449939518681 -0.046178475318293492 0 -0.00075109467846489928 -0.047050192263018403 0 -0.00042489449939518681 -0.046178475318293492 0 -0.00071797792906566431 -0.047653278623834901 0 0.00013975456904908155 -0.047457671522109203 0 -0.00063406487990781593 -0.048493270779164974 0 -0.00071797792906566431 -0.047653278623834901 0 -0.00042489449939518681 -0.046178475318293492 0 0.00013975456904908155 -0.047457671522109203 0 -0.00071797792906566431 -0.047653278623834901 0 0.00067155528342722408 -0.046183410002731115 0 0.00013975456904908155 -0.047457671522109203 0 0.0019687211115717008 -0.047224251960465875 0 0.00067155528342722408 -0.046183410002731115 0 -0.00042489449939518681 -0.046178475318293492 0 0.00013975456904908155 -0.047457671522109203 0 0.001785479702699581 -0.045562655459169814 0 0.00067155528342722408 -0.046183410002731115 0 0.0019687211115717008 -0.047224251960465875 0 0.00013975456904908155 -0.047457671522109203 0 0.0001347765490226717 -0.048629658785405531 0 0.0019687211115717008 -0.047224251960465875 0 -0.0021526820058194169 -0.044461360781774657 0 -0.0010680856222672216 -0.042860345962900372 0 0.00013975456904908155 -0.047457671522109203 0 0.0001347765490226717 -0.048629658785405531 0 -0.00063406487990781593 -0.048493270779164974 0 -0.0030715302122139771 -0.037710870437287734 0 -0.0041646365452735791 -0.038544571696423446 0 -0.0030301787045723476 -0.0386047875222396 0 -0.0045699996406611577 -0.040436231015897939 0 -0.0041646365452735791 -0.038544571696423446 0 -0.0034328610431026843 -0.04009667422832533 0 -0.0041646365452735791 -0.038544571696423446 0 -0.0030301787045723476 -0.0386047875222396 0 -0.0034328610431026843 -0.04009667422832533 0 -0.0045699996406611577 -0.040436231015897939 0 -0.0034328610431026843 -0.04009667422832533 0 -0.0037995990542937469 -0.041785259097224157 0 -0.0037995990542937469 -0.041785259097224157 0 -0.0038765246114879598 -0.043027998338743552 0 -0.0035334592687185514 -0.041703643836606449 0 -0.0034328610431026843 -0.04009667422832533 0 -0.0037995990542937469 -0.041785259097224157 0 -0.0035334592687185514 -0.041703643836606449 0 -0.0034328610431026843 -0.04009667422832533 0 -0.0031275434921498304 -0.040318209572480217 0 -0.0035334592687185514 -0.041703643836606449 0 -0.0021526820058194169 -0.044461360781774657 0 -0.0025516311266118741 -0.045696031584420843 0 0.0001347765490226717 -0.048629658785405531 0 -0.00063406487990781593 -0.048493270779164974 0 -0.0011654692811289169 -0.048699038211418841 0 -0.0045699996406611577 -0.040436231015897939 0 -0.0037995990542937469 -0.041785259097224157 0 -0.0040291893933315755 -0.042626677478730557 0 -0.0045699996406611577 -0.040436231015897939 0 -0.0040291893933315755 -0.042626677478730557 0 -0.0043857851436898106 -0.042984830331126191 0 -0.0037995990542937469 -0.041785259097224157 0 -0.0040291893933315755 -0.042626677478730557 0 -0.0038765246114879598 -0.043027998338743552 0 -0.0040291893933315755 -0.042626677478730557 0 -0.0043857851436898106 -0.042984830331126191 0 -0.0036270941197199236 -0.044311341519674183 0 -0.0011654692811289169 -0.048699038211418841 0 -0.00086345906809590339 -0.048226781986472581 0 -0.0018389589272647855 -0.046447742217320259 0 -0.0025516311266118741 -0.045696031584420843 0 -0.0018498788600961598 -0.04607322522923285 0 -0.0011654692811289169 -0.048699038211418841 0 -0.00086345906809590339 -0.048226781986472581 0 -0.00078333061306235169 -0.048784461814518551 0 -0.00063406487990781593 -0.048493270779164974 0 -0.0011654692811289169 -0.048699038211418841 0 -0.00078333061306235169 -0.048784461814518551 0 -0.00078090369304114693 -0.04884554518546283 0 -0.00024533260220333246 -0.049016557272869521 0 -0.00078333061306235169 -0.048784461814518551 0 -0.00035925392565529858 -0.049493187867922839 0 -0.00057321700142132931 -0.049094247942935279 0 -0.00086345906809590339 -0.048226781986472581 0 -0.00015283411679038709 -0.048478728850595294 0 -0.00048773348249479505 -0.047729686100663846 0 -0.00086345906809590339 -0.048226781986472581 0 -0.00078333061306235169 -0.048784461814518551 0 -0.00015283411679038709 -0.048478728850595294 0 -0.00035925392565529858 -0.049493187867922839 0 -3.9223703608351688e-07 -0.049999171294510682 0 4.8960079920868113e-08 -0.049999726764487891 0 -0.00024533260220333246 -0.049016557272869521 0 3.77216946929121e-08 -0.049999562541170169 0 -0.00035925392565529858 -0.049493187867922839 0 -3.9223703608351688e-07 -0.049999171294510682 0 -0.00031414013238854048 -0.049529137799965185 0 -0.00035925392565529858 -0.049493187867922839 0 -0.00031414013238854048 -0.049529137799965185 0 -0.00057321700142132931 -0.049094247942935279 0 -0.00031414013238854048 -0.049529137799965185 0 -0.000543380086016778 -0.049051736856046788 0 -0.00057321700142132931 -0.049094247942935279 0 -0.00031414013238854048 -0.049529137799965185 0 -4.0533423771200595e-07 -0.049998958022920828 0 -0.000543380086016778 -0.049051736856046788 0 -3.9223703608351688e-07 -0.049999171294510682 0 -0.00031414013238854048 -0.049529137799965185 0 -4.0533423771200595e-07 -0.049998958022920828 0 -0.00036262060435318817 -0.049207143923568106 0 -4.0533423771200595e-07 -0.049998958022920828 0 -0.000543380086016778 -0.049051736856046788 0 -0.00036262060435318817 -0.049207143923568106 0 -0.00080220236401834066 -0.047874680016711919 0 -0.000543380086016778 -0.049051736856046788 0 -0.00080220236401834066 -0.047874680016711919 0 -0.000543380086016778 -0.049051736856046788 0 -0.00075757762526333585 -0.048531929554689136 0 -0.00080220236401834066 -0.047874680016711919 0 -0.00071797792906566431 -0.047653278623834901 0 -0.00075757762526333585 -0.048531929554689136 0 -0.00063406487990781593 -0.048493270779164974 0 -0.00071797792906566431 -0.047653278623834901 0 -0.00075757762526333585 -0.048531929554689136 0 -0.00063406487990781593 -0.048493270779164974 0 -0.00078333061306235169 -0.048784461814518551 0 -0.00075757762526333585 -0.048531929554689136 0 -0.00078333061306235169 -0.048784461814518551 0 -0.00075757762526333585 -0.048531929554689136 0 -0.00057321700142132931 -0.049094247942935279 0 -0.000543380086016778 -0.049051736856046788 0 -0.00075757762526333585 -0.048531929554689136 0 -0.00057321700142132931 -0.049094247942935279 0 0.00034226582779474916 -0.029141671824007842 0 -4.5000914086284275e-05 -0.027148340698630199 0 0.00045590972629546474 -0.029660152781936216 0 0.00034226582779474916 -0.029141671824007842 0 -4.5000914086284275e-05 -0.027148340698630199 0 7.4576354347627885e-05 -0.0271980324104126 0 0.00034226582779474916 -0.029141671824007842 0 0.00045590972629546474 -0.029660152781936216 0 0.0014102541983025926 -0.031569209257700043 0 -4.5000914086284275e-05 -0.027148340698630199 0 3.8820514120826487e-07 -0.027409864044547365 0 9.8198941058913979e-05 -0.023756124748082863 0 -4.5000914086284275e-05 -0.027148340698630199 0 3.8820514120826487e-07 -0.027409864044547365 0 0.00029386449661071318 -0.029506372940923835 0 -4.5000914086284275e-05 -0.027148340698630199 0 0.00029386449661071318 -0.029506372940923835 0 0.00045590972629546474 -0.029660152781936216 0 3.8820514120826487e-07 -0.027409864044547365 0 0.00018676211868089208 -0.031627206036632549 0 -4.5692150264226775e-07 -0.032864485899589915 0 3.8820514120826487e-07 -0.027409864044547365 0 0.00029386449661071318 -0.029506372940923835 0 0.00018676211868089208 -0.031627206036632549 0 0.00033032139664411839 -0.029928057341181778 0 0.00015020934650875146 -0.031809079144409204 0 0.00029386449661071318 -0.029506372940923835 0 0.00018676211868089208 -0.031627206036632549 0 0.00071401293126296277 -0.033854239256989944 0 0.00029386449661071318 -0.029506372940923835 0 -0.00010943811173462531 -0.029777900156165809 0 0.00045590972629546474 -0.029660152781936216 0 0.00045590972629546474 -0.029660152781936216 0 0.0001329317599061954 -0.03177200331296446 0 0.0014102541983025926 -0.031569209257700043 0 -0.00010943811173462531 -0.029777900156165809 0 0.00045590972629546474 -0.029660152781936216 0 0.0001329317599061954 -0.03177200331296446 0 -0.00010943811173462531 -0.029777900156165809 0 -0.0013851634165323594 -0.031540497258953602 0 0.0001329317599061954 -0.03177200331296446 0 -6.0095273996599388e-07 -0.040196058434485246 0 -1.3625802761129822e-05 -0.038776366760084315 0 -4.5692150264226775e-07 -0.032864485899589915 0 0.00015020934650875146 -0.031809079144409204 0 -0.00062966806926392077 -0.033913259140508835 0 0.00011829477890928461 -0.036246910142067809 0 -0.0008777678701953922 -0.036400004233297277 0 -0.00029323268077483536 -0.034627609498333246 0 -0.0008777678701953922 -0.036400004233297277 0 -0.00029323268077483536 -0.034627609498333246 0 -0.00028151159729521375 -0.036044168974227624 0 0.00071401293126296277 -0.033854239256989944 0 0.00011829477890928461 -0.036246910142067809 0 -0.00029323268077483536 -0.034627609498333246 0 -0.00029323268077483536 -0.034627609498333246 0 -4.5692150264226775e-07 -0.032864485899589915 0 -0.00028151159729521375 -0.036044168974227624 0 0.00018676211868089208 -0.031627206036632549 0 -0.00029323268077483536 -0.034627609498333246 0 -4.5692150264226775e-07 -0.032864485899589915 0 0.00018676211868089208 -0.031627206036632549 0 0.00071401293126296277 -0.033854239256989944 0 -0.00029323268077483536 -0.034627609498333246 0 -1.3625802761129822e-05 -0.038776366760084315 0 -4.5692150264226775e-07 -0.032864485899589915 0 -0.00028151159729521375 -0.036044168974227624 0 -1.3625802761129822e-05 -0.038776366760084315 0 -0.00028151159729521375 -0.036044168974227624 0 -0.00036123555827027783 -0.037439424748690719 0 -1.3625802761129822e-05 -0.038776366760084315 0 0.00020589460406022787 -0.038868649298961708 0 -0.00036123555827027783 -0.037439424748690719 0 0.00020589460406022787 -0.038868649298961708 0 -0.00036123555827027783 -0.037439424748690719 0 -0.00048479743815740746 -0.037151732309506275 0 -0.0008777678701953922 -0.036400004233297277 0 -0.00028151159729521375 -0.036044168974227624 0 -0.00036123555827027783 -0.037439424748690719 0 -0.0008777678701953922 -0.036400004233297277 0 -0.0024518595947558581 -0.03689154039497955 0 -0.0022961942212927182 -0.037834731205480726 0 -0.0008777678701953922 -0.036400004233297277 0 -0.00036123555827027783 -0.037439424748690719 0 -0.00048479743815740746 -0.037151732309506275 0 -0.0007800194404336434 -0.036607078918167613 0 -0.0018320357887793796 -0.036688423554367369 0 -0.0030715302122139771 -0.037710870437287734 0 -0.0024518595947558581 -0.03689154039497955 0 -0.0022961942212927182 -0.037834731205480726 0 0.00027531030461970963 -0.040723995986791356 0 -0.0018320357887793796 -0.036688423554367369 0 -0.0030715302122139771 -0.037710870437287734 0 -0.0030301787045723476 -0.0386047875222396 0 -0.0022961942212927182 -0.037834731205480726 0 -0.0008777678701953922 -0.036400004233297277 0 -0.0022961942212927182 -0.037834731205480726 0 -0.0011475308507196602 -0.037997900078772552 0 -0.0022961942212927182 -0.037834731205480726 0 -0.0027587337391028581 -0.038655001887576819 0 -0.0011475308507196602 -0.037997900078772552 0 -0.0027587337391028581 -0.038655001887576819 0 -0.0018528709900291328 -0.037104348635391492 0 -0.0027070067502468153 -0.034891854868191845 0 -0.0026812452973440774 -0.038320820612775239 0 -0.0018359296576715319 -0.036388561032924559 0 -0.0030301787045723476 -0.0386047875222396 0 -0.0022961942212927182 -0.037834731205480726 0 -0.0027587337391028581 -0.038655001887576819 0 -0.0030301787045723476 -0.0386047875222396 0 -0.0034328610431026843 -0.04009667422832533 0 -0.0027587337391028581 -0.038655001887576819 0 -0.0034328610431026843 -0.04009667422832533 0 -0.0031275434921498304 -0.040318209572480217 0 -0.0027587337391028581 -0.038655001887576819 0 -0.0027587337391028581 -0.038655001887576819 0 -0.0019228296401660511 -0.03925554985416576 0 -0.0027686358929038721 -0.040873688455429831 0 -0.0031275434921498304 -0.040318209572480217 0 -0.0027587337391028581 -0.038655001887576819 0 -0.0027686358929038721 -0.040873688455429831 0 -0.0031275434921498304 -0.040318209572480217 0 -0.0027686358929038721 -0.040873688455429831 0 -0.0035334592687185514 -0.041703643836606449 0 -0.0027587337391028581 -0.038655001887576819 0 -0.0018528709900291328 -0.037104348635391492 0 -0.0019228296401660511 -0.03925554985416576 0 -0.0018528709900291328 -0.037104348635391492 0 -0.0019228296401660511 -0.03925554985416576 0 -0.00052473473589889521 -0.037820286589453765 0 -0.0019228296401660511 -0.03925554985416576 0 -0.00052473473589889521 -0.037820286589453765 0 -0.00031931499043309888 -0.040070167684061291 0 -0.0018528709900291328 -0.037104348635391492 0 -0.00052473473589889521 -0.037820286589453765 0 -0.00084557499976134075 -0.034760529109138891 0 -0.0018528709900291328 -0.037104348635391492 0 -0.00084557499976134075 -0.034760529109138891 0 -0.0027070067502468153 -0.034891854868191845 0 -0.00062966806926392077 -0.033913259140508835 0 -0.0018359296576715319 -0.036388561032924559 0 0.00011829477890928461 -0.036246910142067809 0 -0.0008777678701953922 -0.036400004233297277 0 -0.0011475308507196602 -0.037997900078772552 0 -0.0013851634165323594 -0.031540497258953602 0 -0.00084557499976134075 -0.034760529109138891 0 -0.0027070067502468153 -0.034891854868191845 0 -0.0013851634165323594 -0.031540497258953602 0 -0.00084557499976134075 -0.034760529109138891 0 0.0001329317599061954 -0.03177200331296446 0 0.0001329317599061954 -0.03177200331296446 0 0.0014102541983025926 -0.031569209257700043 0 0.00054967822975446963 -0.035179490953260395 0 0.0015218657483429825 -0.031640687315503319 0 0.0022080947444832123 -0.032980229267689114 0 0.0014102541983025926 -0.031569209257700043 0 0.00054967822975446963 -0.035179490953260395 0 0.003385978706006799 -0.036409081480699886 0 -0.00084557499976134075 -0.034760529109138891 0 0.0001329317599061954 -0.03177200331296446 0 0.00054967822975446963 -0.035179490953260395 0 -0.00052473473589889521 -0.037820286589453765 0 -0.00084557499976134075 -0.034760529109138891 0 0.00054967822975446963 -0.035179490953260395 0 -0.00052473473589889521 -0.037820286589453765 0 0.00054967822975446963 -0.035179490953260395 0 0.0011105215238025447 -0.038790604251153958 0 -0.00052473473589889521 -0.037820286589453765 0 0.0011105215238025447 -0.038790604251153958 0 -0.00031931499043309888 -0.040070167684061291 0 0.0011105215238025447 -0.038790604251153958 0 0.003385978706006799 -0.036409081480699886 0 0.002389145729320378 -0.03952660866647708 0 0.00054967822975446963 -0.035179490953260395 0 0.0011105215238025447 -0.038790604251153958 0 0.003385978706006799 -0.036409081480699886 0 0.00094656864098675516 -0.028730956712442749 0 0.0005705935942643544 -0.029294775895943211 0 0.00021782042828555497 -0.029067493286731711 0 0.003385978706006799 -0.036409081