<?xml version="1.0"?>
<VTKFile type="UnstructuredGrid" version="0.1" byte_order="LittleEndian">
<UnstructuredGrid>
<Piece NumberOfPoints="29506" NumberOfCells="10360">
<Points>
<DataArray type="Float64" NumberOfComponents="3" format="ascii">
-0.5 -0.5 0 -0.47696226168452538 -0.47508257674467608 0 -0.5 -0.40194873453805408 0 -0.5 -0.5 0 -0.48617485428971441 -0.49999999999999978 0 -0.47696226168452538 -0.47508257674467608 0 -0.47696226168452538 -0.47508257674467608 0 -0.46774966907933629 -0.45016515348935238 0 -0.5 -0.40194873453805408 0 -0.48617485428971441 -0.49999999999999978 0 -0.47696226168452538 -0.47508257674467608 0 -0.45664250176891619 -0.5 0 -0.48617485428971441 -0.49999999999999978 0 -0.47696226168452538 -0.47508257674467608 0 -0.47696226168452538 -0.47508257674467608 0 -0.45664250176891619 -0.5 0 -0.45700033410924101 -0.47265801169205562 0 -0.45700033410924101 -0.47265801169205562 0 -0.4418902773561707 -0.48175554229659401 0 -0.44175696065725573 -0.45628678592965521 0 -0.45664250176891619 -0.5 0 -0.4418902773561707 -0.48175554229659401 0 -0.42711014924811808 -0.5 0 -0.45664250176891619 -0.5 0 -0.45700033410924101 -0.47265801169205562 0 -0.4418902773561707 -0.48175554229659401 0 -0.44187400167307422 -0.44095767887066201 0 -0.44175696065725573 -0.45628678592965521 0 -0.42955524590135852 -0.43868986677814847 0 -0.44187400167307422 -0.44095767887066201 0 -0.44175696065725573 -0.45628678592965521 0 -0.45325755922839678 -0.44082427593074058 0 -0.47696226168452538 -0.47508257674467608 0 -0.45700033410924101 -0.47265801169205562 0 -0.46774966907933629 -0.45016515348935238 0 -0.45700033410924101 -0.47265801169205562 0 -0.44175696065725573 -0.45628678592965521 0 -0.46774966907933629 -0.45016515348935238 0 -0.46774966907933629 -0.45016515348935238 0 -0.45853707647414721 -0.42524773023402862 0 -0.46774966907933629 -0.45016515348935238 0 -0.45325755922839678 -0.44082427593074058 0 -0.45853707647414721 -0.42524773023402862 0 -0.44175696065725573 -0.45628678592965521 0 -0.46774966907933629 -0.45016515348935238 0 -0.45325755922839678 -0.44082427593074058 0 -0.47696226168452538 -0.47508257674467608 0 -0.46774966907933629 -0.45016515348935238 0 -0.46774966907933629 -0.45016515348935238 0 -0.5 -0.40194873453805408 0 -0.45853707647414721 -0.42524773023402862 0 -0.5 -0.40194873453805408 0 -0.46923291525112393 -0.40227919791892319 0 -0.45853707647414721 -0.42524773023402862 0 -0.46923291525112393 -0.40227919791892319 0 -0.47723926971091502 -0.37883738684114437 0 -0.46199791381478489 -0.39324373611997282 0 -0.5 -0.40194873453805408 0 -0.46923291525112393 -0.40227919791892319 0 -0.47723926971091502 -0.37883738684114437 0 -0.47723926971091502 -0.37883738684114437 0 -0.46063227861286149 -0.37802114421650379 0 -0.46199791381478489 -0.39324373611997282 0 -0.46063227861286149 -0.37802114421650379 0 -0.44934692324427572 -0.38602370070780923 0 -0.46063227861286149 -0.37802114421650379 0 -0.46199791381478489 -0.39324373611997282 0 -0.44934692324427572 -0.38602370070780923 0 -0.46199791381478489 -0.39324373611997282 0 -0.44934692324427572 -0.38602370070780923 0 -0.45186062385423548 -0.41581831998743252 0 -0.46923291525112393 -0.40227919791892319 0 -0.46199791381478489 -0.39324373611997282 0 -0.45186062385423548 -0.41581831998743252 0 -0.44934692324427572 -0.38602370070780923 0 -0.45186062385423548 -0.41581831998743252 0 -0.44934692324427572 -0.38602370070780923 0 -0.4281951023695143 -0.40102266493320532 0 -0.44194423197073762 -0.40414133886736581 0 -0.44934692324427572 -0.38602370070780923 0 -0.45186062385423548 -0.41581831998743252 0 -0.44194423197073762 -0.40414133886736581 0 -0.44934692324427572 -0.38602370070780923 0 -0.4281951023695143 -0.40102266493320532 0 -0.46063227861286149 -0.37802114421650379 0 -0.44934692324427572 -0.38602370070780923 0 -0.44739979342913311 -0.36294458329013229 0 -0.44934692324427572 -0.38602370070780923 0 -0.43674333185042352 -0.37641919199672741 0 -0.4281951023695143 -0.40102266493320532 0 -0.44934692324427572 -0.38602370070780923 0 -0.43674333185042352 -0.37641919199672741 0 -0.44739979342913311 -0.36294458329013229 0 -0.46923291525112393 -0.40227919791892319 0 -0.45853707647414721 -0.42524773023402862 0 -0.45186062385423548 -0.41581831998743252 0 -0.44194423197073762 -0.40414133886736581 0 -0.45186062385423548 -0.41581831998743252 0 -0.43823280816596138 -0.41379272184435001 0 -0.45186062385423548 -0.41581831998743252 0 -0.43823280816596138 -0.41379272184435001 0 -0.44292624090528621 -0.42802978684410381 0 -0.45853707647414721 -0.42524773023402862 0 -0.45186062385423548 -0.41581831998743252 0 -0.44292624090528621 -0.42802978684410381 0 -0.45325755922839678 -0.44082427593074058 0 -0.45853707647414721 -0.42524773023402862 0 -0.44292624090528621 -0.42802978684410381 0 -0.44187400167307422 -0.44095767887066201 0 -0.45325755922839678 -0.44082427593074058 0 -0.44292624090528621 -0.42802978684410381 0 -0.44187400167307422 -0.44095767887066201 0 -0.44292624090528621 -0.42802978684410381 0 -0.42955524590135852 -0.43868986677814847 0 -0.42623784173003332 -0.41995149858964231 0 -0.41099716969282479 -0.4344190863311328 0 -0.42955524590135852 -0.43868986677814847 0 -0.44292624090528621 -0.42802978684410381 0 -0.42623784173003332 -0.41995149858964231 0 -0.42955524590135852 -0.43868986677814847 0 -0.43823280816596138 -0.41379272184435001 0 -0.42623784173003332 -0.41995149858964231 0 -0.4281951023695143 -0.40102266493320532 0 -0.43823280816596138 -0.41379272184435001 0 -0.44292624090528621 -0.42802978684410381 0 -0.42623784173003332 -0.41995149858964231 0 -0.44194423197073762 -0.40414133886736581 0 -0.43823280816596138 -0.41379272184435001 0 -0.4281951023695143 -0.40102266493320532 0 -0.42623784173003332 -0.41995149858964231 0 -0.40704328149475222 -0.41602162915860041 0 -0.4281951023695143 -0.40102266493320532 0 -0.40704328149475222 -0.41602162915860041 0 -0.4281951023695143 -0.40102266493320532 0 -0.42623784173003332 -0.41995149858964231 0 -0.40704328149475222 -0.41602162915860041 0 -0.41099716969282479 -0.4344190863311328 0 -0.43674333185042352 -0.37641919199672741 0 -0.4281951023695143 -0.40102266493320532 0 -0.42089628469911827 -0.37612820863284591 0 -0.40704328149475222 -0.41602162915860041 0 -0.4281951023695143 -0.40102266493320532 0 -0.40139446399348361 -0.38776554810080882 0 -0.4281951023695143 -0.40102266493320532 0 -0.42089628469911827 -0.37612820863284591 0 -0.40139446399348361 -0.38776554810080882 0 -0.40704328149475222 -0.41602162915860041 0 -0.40139446399348361 -0.38776554810080882 0 -0.38513132625911939 -0.40249628858521058 0 -0.38513132625911939 -0.40249628858521058 0 -0.36791152532905752 -0.40939097156179138 0 -0.37494147391003102 -0.38718626649864601 0 -0.40139446399348361 -0.38776554810080882 0 -0.38513132625911939 -0.40249628858521058 0 -0.37494147391003102 -0.38718626649864601 0 -0.40139446399348361 -0.38776554810080882 0 -0.38864739629284478 -0.37358803665991203 0 -0.37494147391003102 -0.38718626649864601 0 -0.40704328149475222 -0.41602162915860041 0 -0.38589146061999008 -0.43102059338399551 0 -0.40704328149475222 -0.41602162915860041 0 -0.41099716969282479 -0.4344190863311328 0 -0.38589146061999008 -0.43102059338399551 0 -0.40704328149475222 -0.41602162915860041 0 -0.38513132625911939 -0.40249628858521058 0 -0.3825683938499011 -0.41720756293568267 0 -0.40704328149475222 -0.41602162915860041 0 -0.3825683938499011 -0.41720756293568267 0 -0.38589146061999008 -0.43102059338399551 0 -0.38513132625911939 -0.40249628858521058 0 -0.3825683938499011 -0.41720756293568267 0 -0.36791152532905752 -0.40939097156179138 0 -0.3825683938499011 -0.41720756293568267 0 -0.38589146061999008 -0.43102059338399551 0 -0.36686437554658652 -0.42710833198881581 0 -0.38589146061999008 -0.43102059338399551 0 -0.38071661097606729 -0.4504362562503097 0 -0.36473963974522788 -0.4460195576093906 0 -0.38589146061999008 -0.43102059338399551 0 -0.36473963974522788 -0.4460195576093906 0 -0.38589146061999008 -0.43102059338399551 0 -0.38071661097606729 -0.4504362562503097 0 -0.3987887142996418 -0.44824954428615721 0 -0.41099716969282479 -0.4344190863311328 0 -0.38589146061999008 -0.43102059338399551 0 -0.3987887142996418 -0.44824954428615721 0 -0.3987887142996418 -0.44824954428615721 0 -0.3834170792530821 -0.47412477214307952 0 -0.3987887142996418 -0.44824954428615721 0 -0.3834170792530821 -0.47412477214307952 0 -0.40627049207056282 -0.46605163612719602 0 -0.38071661097606729 -0.4504362562503097 0 -0.3834170792530821 -0.47412477214307952 0 -0.3690595195626194 -0.4589872873636125 0 -0.38071661097606729 -0.4504362562503097 0 -0.3987887142996418 -0.44824954428615721 0 -0.3834170792530821 -0.47412477214307952 0 -0.3834170792530821 -0.47412477214307952 0 -0.39757779672732002 -0.5 0 -0.36804544420652191 -0.50000000000000133 0 -0.3834170792530821 -0.47412477214307952 0 -0.36804544420652191 -0.50000000000000133 0 -0.3834170792530821 -0.47412477214307952 0 -0.39757779672732002 -0.5 0 -0.4093383027102272 -0.48413714586396528 0 -0.3834170792530821 -0.47412477214307952 0 -0.4093383027102272 -0.48413714586396528 0 -0.40627049207056282 -0.46605163612719602 0 -0.4093383027102272 -0.48413714586396528 0 -0.42406828670935232 -0.47348097578246062 0 -0.40627049207056282 -0.46605163612719602 0 -0.4093383027102272 -0.48413714586396528 0 -0.42711014924811808 -0.5 0 -0.42406828670935232 -0.47348097578246062 0 -0.39757779672732002 -0.5 0 -0.4093383027102272 -0.48413714586396528 0 -0.42711014924811808 -0.5 0 -0.4418902773561707 -0.48175554229659401 0 -0.42711014924811808 -0.5 0 -0.42406828670935232 -0.47348097578246062 0 -0.4418902773561707 -0.48175554229659401 0 -0.44175696065725573 -0.45628678592965521 0 -0.42406828670935232 -0.47348097578246062 0 -0.44175696065725573 -0.45628678592965521 0 -0.42406828670935232 -0.47348097578246062 0 -0.41846647411117333 -0.45258138579025292 0 -0.44175696065725573 -0.45628678592965521 0 -0.42955524590135852 -0.43868986677814847 0 -0.41846647411117333 -0.45258138579025292 0 -0.41099716969282479 -0.4344190863311328 0 -0.42955
[...]
<PointData Scalars="" Vectors="displacement," Tensors="">
<DataArray type="Float64" Name="displacement" NumberOfComponents="3" format="ascii">
-0.050000291590520655 -0.049993569810264052 0 -0.047725366697910727 -0.050595179984484061 0 -0.040199220776183937 -0.049996590355521217 0 -0.050000291590520655 -0.049993569810264052 0 -0.049996591350058496 -0.048628228343644754 0 -0.047725366697910727 -0.050595179984484061 0 -0.047725366697910727 -0.050595179984484061 0 -0.04546613497067295 -0.050695676041130885 0 -0.040199220776183937 -0.049996590355521217 0 -0.04999909345569039 -0.048613845409126721 0 -0.050197971779079913 -0.046208963684682226 0 -0.049998995448771066 -0.045664481875533111 0 -0.049999241784935922 -0.048617570769989335 0 -0.048794664638384583 -0.048414108040771037 0 -0.050197971779079913 -0.046208963684682226 0 -0.049998995448771066 -0.045664481875533111 0 -0.049796465194387574 -0.045503317605441948 0 -0.049796465194387574 -0.045503317605441948 0 -0.049874174597183032 -0.044546041681243889 0 -0.048702036000926104 -0.045616057383658357 0 -0.049998995448771066 -0.045664481875533111 0 -0.049874174597183032 -0.044546041681243889 0 -0.0499984839395127 -0.042711904102420081 0 -0.049998995448771066 -0.045664481875533111 0 -0.049796465194387574 -0.045503317605441948 0 -0.049874174597183032 -0.044546041681243889 0 -0.047603047082420497 -0.046285293121422322 0 -0.048702036000926104 -0.045616057383658357 0 -0.047813875740705829 -0.045251322975639684 0 -0.047603047082420497 -0.046285293121422322 0 -0.048702036000926104 -0.045616057383658357 0 -0.047261295108185539 -0.046949494091181251 0 -0.050197971779079913 -0.046208963684682226 0 -0.049796465194387574 -0.045503317605441948 0 -0.048556228293456322 -0.045569914075842849 0 -0.049796465194387574 -0.045503317605441948 0 -0.048702036000926104 -0.045616057383658357 0 -0.048556228293456322 -0.045569914075842849 0 -0.047118445070204275 -0.048228307212301619 0 -0.045507218487283778 -0.048951000540907258 0 -0.048556228293456322 -0.045569914075842849 0 -0.047261295108185539 -0.046949494091181251 0 -0.045234494370617842 -0.049146407394954426 0 -0.048702036000926104 -0.045616057383658357 0 -0.048556228293456322 -0.045569914075842849 0 -0.047261295108185539 -0.046949494091181251 0 -0.048794664638384583 -0.048414108040771037 0 -0.047118445070204275 -0.048228307212301619 0 -0.04546613497067295 -0.050695676041130885 0 -0.040199220776183937 -0.049996590355521217 0 -0.045234494370617842 -0.049146407394954426 0 -0.040199220776183937 -0.049996590355521217 0 -0.042001211339720075 -0.049948008595126686 0 -0.045234494370617842 -0.049146407394954426 0 -0.042001211339720075 -0.049948008595126686 0 -0.038250783311040107 -0.050289463166797679 0 -0.040780253815537536 -0.050691799977079156 0 -0.040199220776183937 -0.049996590355521217 0 -0.042001211339720075 -0.049948008595126686 0 -0.038250783311040107 -0.050289463166797679 0 -0.038250783311040107 -0.050289463166797679 0 -0.038057724702104979 -0.05123775086224848 0 -0.040780253815537536 -0.050691799977079156 0 -0.038915733383324908 -0.051449172811152959 0 -0.040878846962198422 -0.049261311215797639 0 -0.038057724702104979 -0.05123775086224848 0 -0.040780253815537536 -0.050691799977079156 0 -0.039523489766591528 -0.052957831015879517 0 -0.040780253815537536 -0.050691799977079156 0 -0.039523489766591528 -0.052957831015879517 0 -0.045611179303452216 -0.049509489368470633 0 -0.042001211339720075 -0.049948008595126686 0 -0.040780253815537536 -0.050691799977079156 0 -0.045611179303452216 -0.049509489368470633 0 -0.040878846962198422 -0.049261311215797639 0 -0.047634822730601135 -0.050143341103874604 0 -0.040878846962198422 -0.049261311215797639 0 -0.042498072285787773 -0.045151573540237924 0 -0.048610932593467791 -0.047470491723967508 0 -0.052263599546449629 -0.048911427597723392 0 -0.045611179303452216 -0.049509489368470633 0 -0.048610932593467791 -0.047470491723967508 0 -0.052263599546449629 -0.048911427597723392 0 -0.049211830798049021 -0.0452889994112902 0 -0.038057724702104979 -0.05123775086224848 0 -0.03868876089084082 -0.052107627800261069 0 -0.036373263599918583 -0.051820607924300231 0 -0.034445973332242981 -0.046596485399195323 0 -0.034461078527878927 -0.046551945078785822 0 -0.034871000777703533 -0.045235671400535589 0 -0.034445973332242981 -0.046596485399195323 0 -0.034461078527878927 -0.046551945078785822 0 -0.034325237458992991 -0.047571487873724561 0 -0.042001211339720075 -0.049948008595126686 0 -0.045234494370617842 -0.049146407394954426 0 -0.045611179303452216 -0.049509489368470633 0 -0.048610932593467791 -0.047470491723967508 0 -0.045611179303452216 -0.049509489368470633 0 -0.04749398365343474 -0.046782796532580412 0 -0.045611179303452216 -0.049509489368470633 0 -0.04749398365343474 -0.046782796532580412 0 -0.046664450020099273 -0.047199502718179021 0 -0.045234494370617842 -0.049146407394954426 0 -0.045611179303452216 -0.049509489368470633 0 -0.046664450020099273 -0.047199502718179021 0 -0.047261295108185539 -0.046949494091181251 0 -0.045234494370617842 -0.049146407394954426 0 -0.046664450020099273 -0.047199502718179021 0 -0.047603047082420497 -0.046285293121422322 0 -0.047261295108185539 -0.046949494091181251 0 -0.046664450020099273 -0.047199502718179021 0 -0.047603047082420497 -0.046285293121422322 0 -0.046664450020099273 -0.047199502718179021 0 -0.047813875740705829 -0.045251322975639684 0 -0.047987604164729997 -0.045184981974420613 0 -0.048380099239459656 -0.04347651230268175 0 -0.047813875740705829 -0.045251322975639684 0 -0.046664450020099273 -0.047199502718179021 0 -0.047987604164729997 -0.045184981974420613 0 -0.047813875740705829 -0.045251322975639684 0 -0.04749398365343474 -0.046782796532580412 0 -0.047987604164729997 -0.045184981974420613 0 -0.049211830798049021 -0.0452889994112902 0 -0.04749398365343474 -0.046782796532580412 0 -0.046664450020099273 -0.047199502718179021 0 -0.047987604164729997 -0.045184981974420613 0 -0.048610932593467791 -0.047470491723967508 0 -0.04749398365343474 -0.046782796532580412 0 -0.049211830798049021 -0.0452889994112902 0 -0.047987604164729997 -0.045184981974420613 0 -0.04901214409490879 -0.043368952438824111 0 -0.049211830798049021 -0.0452889994112902 0 -0.042679251938646579 -0.043351212509717928 0 -0.042498072285787773 -0.045151573540237924 0 -0.047987604164729997 -0.045184981974420613 0 -0.04901214409490879 -0.043368952438824111 0 -0.048380099239459656 -0.04347651230268175 0 -0.034461078527878927 -0.046551945078785822 0 -0.034871000777703533 -0.045235671400535589 0 -0.03454972779874791 -0.0458050972073272 0 -0.036264413558411653 -0.043307374182241828 0 -0.034871000777703533 -0.045235671400535589 0 -0.035170143327240957 -0.044378342336977544 0 -0.034871000777703533 -0.045235671400535589 0 -0.03454972779874791 -0.0458050972073272 0 -0.035170143327240957 -0.044378342336977544 0 -0.036264413558411653 -0.043307374182241828 0 -0.035170143327240957 -0.044378342336977544 0 -0.036377971735811088 -0.043262747256535443 0 -0.036377971735811088 -0.043262747256535443 0 -0.03727534118792164 -0.04336709416285893 0 -0.035268671910656982 -0.04416890175600046 0 -0.035170143327240957 -0.044378342336977544 0 -0.036377971735811088 -0.043262747256535443 0 -0.035268671910656982 -0.04416890175600046 0 -0.035170143327240957 -0.044378342336977544 0 -0.034594152121314614 -0.044839510320573921 0 -0.035268671910656982 -0.04416890175600046 0 -0.042679251938646579 -0.043351212509717928 0 -0.044372024700179841 -0.041326432754425116 0 -0.04901214409490879 -0.043368952438824111 0 -0.048380099239459656 -0.04347651230268175 0 -0.048916761652052242 -0.04098897164917617 0 -0.036264413558411653 -0.043307374182241828 0 -0.036377971735811088 -0.043262747256535443 0 -0.037881323363441986 -0.042293587720203203 0 -0.036264413558411653 -0.043307374182241828 0 -0.037881323363441986 -0.042293587720203203 0 -0.039363661818856428 -0.041245234273792578 0 -0.036377971735811088 -0.043262747256535443 0 -0.037881323363441986 -0.042293587720203203 0 -0.03727534118792164 -0.04336709416285893 0 -0.037881323363441986 -0.042293587720203203 0 -0.039363661818856428 -0.041245234273792578 0 -0.040267918197661234 -0.04208639708402586 0 -0.048916761652052242 -0.04098897164917617 0 -0.048163910821272797 -0.039990348981763887 0 -0.046618232873493162 -0.040004006797167514 0 -0.044372024700179841 -0.041326432754425116 0 -0.046433464593003855 -0.040610497556387452 0 -0.048916761652052242 -0.04098897164917617 0 -0.048163910821272797 -0.039990348981763887 0 -0.048450002823079791 -0.041994143041696831 0 -0.048380099239459656 -0.04347651230268175 0 -0.048916761652052242 -0.04098897164917617 0 -0.048450002823079791 -0.041994143041696831 0 -0.048665354515352185 -0.041667537075544506 0 -0.049427946168537525 -0.039577672244514549 0 -0.048450002823079791 -0.041994143041696831 0 -0.05027393569449734 -0.040272345588707611 0 -0.049337057166438249 -0.042071913674881778 0 -0.048163910821272797 -0.039990348981763887 0 -0.048666963330442209 -0.038799722587600033 0 -0.048650123722694005 -0.039121768467297272 0 -0.048163910821272797 -0.039990348981763887 0 -0.048450002823079791 -0.041994143041696831 0 -0.048666963330442209 -0.038799722587600033 0 -0.05027393569449734 -0.040272345588707611 0 -0.049998365285188265 -0.039759660186902093 0 -0.049999860269589254 -0.036806918895925141 0 -0.049427946168537525 -0.039577672244514549 0 -0.049999635714822424 -0.036805297904285952 0 -0.05027393569449734 -0.040272345588707611 0 -0.049998365285188265 -0.039759660186902093 0 -0.049881890950554918 -0.041638166603839968 0 -0.05027393569449734 -0.040272345588707611 0 -0.049881890950554918 -0.041638166603839968 0 -0.049337057166438249 -0.042071913674881778 0 -0.049881890950554918 -0.041638166603839968 0 -0.049522299876966866 -0.043383718352008875 0 -0.049337057166438249 -0.042071913674881778 0 -0.049881890950554918 -0.041638166603839968 0 -0.0499984839395127 -0.042711904102420081 0 -0.049522299876966866 -0.043383718352008875 0 -0.049998365285188265 -0.039759660186902093 0 -0.049881890950554918 -0.041638166603839968 0 -0.0499984839395127 -0.042711904102420081 0 -0.049874174597183032 -0.044546041681243889 0 -0.0499984839395127 -0.042711904102420081 0 -0.049522299876966866 -0.043383718352008875 0 -0.049874174597183032 -0.044546041681243889 0 -0.048702036000926104 -0.045616057383658357 0 -0.049522299876966866 -0.043383718352008875 0 -0.048702036000926104 -0.045616057383658357 0 -0.049522299876966866 -0.043383718352008875 0 -0.048604087683083178 -0.043677346290604754 0 -0.048702036000926104 -0.045616057383658357 0 -0.047813875740705829 -0.045251322975639684 0 -0.048604087683083178 -0.043677346290604754 0 -0.048380099239459656 -0.04347651230268175 0 -0.047813875740705829 -0.045251322975639684 0 -0.048604087683083178 -0.043677346290604754 0 -0.048380099239459656 -0.04347651230268175 0 -0.048450002823079791 -0.041994143041696831 0 -0.048604087683083178 -0.043677346290604754 0 -0.048450002823079791 -0.041994143041696831 0 -0.048604087683083178 -0.043677346290604754 0 -0.049337057166438249 -0.042071913674881778 0 -0.049522299876966866 -0.043383718352008875 0 -0.048604087683083178 -0.043677346290604754 0 -0.049337057166438249 -0.042071913674881778 0 -0.027247166130781365 -0.050582131752934155 0 -0.026371508299677372 -0.050627382479830042 0 -0.029178061859299598 -0.050034794182523913 0 -0.027247166130781365 -0.050582131752934155 0 -0.026371508299677372 -0.050627382479830042 0 -0.025802050875538336 -0.050809357956860909 0 -0.027247166130781365 -0.050582131752934155 0 -0.029178061859299598 -0.050034794182523913 0 -0.030412155697752227 -0.049803899690747548 0 -0.026371508299677372 -0.050627382479830042 0 -0.027410543251294224 -0.049997419157811911 0 -0.023191913035805409 -0.050736204333813179 0 -0.026371508299677372 -0.050627382479830042 0 -0.027410543251294224 -0.049997419157811911 0 -0.02897342325736291 -0.050481179516146057 0 -0.026371508299677372 -0.050627382479830042 0 -0.02897342325736291 -0.050481179516146057 0 -0.029178061859299598 -0.050034794182523913 0 -0.027410543251294224 -0.049997419157811911 0 -0.031182791807617658 -0.05050665118622806 0 -0.032863299565312018 -0.049998174985031847 0 -0.027410543251294224 -0.049997419157811911 0 -0.02897342325736291 -0.050481179516146057 0 -0.031182791807617658 -0.05050665118622806 0 -0.02921731014708407 -0.050375260260287193 0 -0.030899135234915606 -0.050475450332160297 0 -0.02897342325736291 -0.050481179516146057 0 -0.031182791807617658 -0.05050665118622806 0 -0.031822040465959073 -0.051462788474373709 0 -0.02897342325736291 -0.050481179516146057 0 -0.030023197688477492 -0.049568462614443427 0 -0.029178061859299598 -0.050034794182523913 0 -0.029178061859299598 -0.050034794182523913 0 -0.030895925678632832 -0.049130925829664204 0 -0.030412155697752227 -0.049803899690747548 0 -0.030023197688477492 -0.049568462614443427 0 -0.029178061859299598 -0.050034794182523913 0 -0.030895925678632832 -0.049130925829664204 0 -0.030023197688477492 -0.049568462614443427 0 -0.031190263834343649 -0.048711742611929031 0 -0.030895925678632832 -0.049130925829664204 0 -0.040199220776183937 -0.049996590355521217 0 -0.038250783311040107 -0.050289463166797679 0 -0.032863299565312018 -0.049998174985031847 0 -0.030899135234915606 -0.050475450332160297 0 -0.032696188620540544 -0.049641361191354358 0 -0.034289083775158199 -0.050754592387124514 0 -0.034479362692936631 -0.050310760400694286 0 -0.033654278765013701 -0.050923242700856131 0 -0.034479362692936631 -0.050310760400694286 0 -0.033654278765013701 -0.050923242700856131 0 -0.035177655126286109 -0.05071368316923109 0 -0.031822040465959073 -0.051462788474373709 0 -0.034289083775158199 -0.050754592387124514 0 -0.033654278765013701 -0.050923242700856131 0 -0.033654278765013701 -0.050923242700856131 0 -0.032863299565312018 -0.049998174985031847 0 -0.035177655126286109 -0.05071368316923109 0 -0.031182791807617658 -0.05050665118622806 0 -0.033654278765013701 -0.050923242700856131 0 -0.032863299565312018 -0.049998174985031847 0 -0.031182791807617658 -0.05050665118622806 0 -0.031822040465959073 -0.051462788474373709 0 -0.033654278765013701 -0.050923242700856131 0 -0.038250783311040107 -0.050289463166797679 0 -0.032863299565312018 -0.049998174985031847 0 -0.035177655126286109 -0.05071368316923109 0 -0.038250783311040107 -0.050289463166797679 0 -0.035177655126286109 -0.05071368316923109 0 -0.036308330890332467 -0.051052123381302779 0 -0.038250783311040107 -0.050289463166797679 0 -0.038057724702104979 -0.05123775086224848 0 -0.036308330890332467 -0.051052123381302779 0 -0.038057724702104979 -0.05123775086224848 0 -0.036308330890332467 -0.051052123381302779 0 -0.036373263599918583 -0.051820607924300231 0 -0.034479362692936631 -0.050310760400694286 0 -0.035177655126286109 -0.05071368316923109 0 -0.036308330890332467 -0.051052123381302779 0 -0.034479362692936631 -0.050310760400694286 0 -0.034325237458992991 -0.047571487873724561 0 -0.034234103345177735 -0.04727942497717625 0 -0.034479362692936631 -0.050310760400694286 0 -0.036308330890332467 -0.051052123381302779 0 -0.036373263599918583 -0.051820607924300231 0 -0.035171586592313189 -0.050130666591156073 0 -0.0345787563000289 -0.04978081212724348 0 -0.034461078527878927 -0.046551945078785822 0 -0.034325237458992991 -0.047571487873724561 0 -0.034234103345177735 -0.04727942497717625 0 -0.040878846962198422 -0.049261311215797639 0 -0.0345787563000289 -0.04978081212724348 0 -0.034461078527878927 -0.046551945078785822 0 -0.03454972779874791 -0.0458050972073272 0 -0.034234103345177735 -0.04727942497717625 0 -0.034479362692936631 -0.050310760400694286 0 -0.034234103345177735 -0.04727942497717625 0 -0.03491958419744122 -0.047725736666042178 0 -0.034234103345177735 -0.04727942497717625 0 -0.033960349896898653 -0.045720906464429015 0 -0.03491958419744122 -0.047725736666042178 0 -0.033960349896898653 -0.045720906464429015 0 -0.032506706928453324 -0.046709338723196207 0 -0.032181745253477799 -0.047150059683141794 0 -0.033874918639141369 -0.046010178877902173 0 -0.033538405935990646 -0.047478203116205563 0 -0.03454972779874791 -0.0458050972073272 0 -0.034234103345177735 -0.04727942497717625 0 -0.033960349896898653 -0.045720906464429015 0 -0.03454972779874791 -0.0458050972073272 0 -0.035170143327240957 -0.044378342336977544 0 -0.033960349896898653 -0.045720906464429015 0 -0.035170143327240957 -0.044378342336977544 0 -0.034594152121314614 -0.044839510320573921 0 -0.033960349896898653 -0.045720906464429015 0 -0.033960349896898653 -0.045720906464429015 0 -0.03314368859588801 -0.046010513013290351 0 -0.034034219481630344 -0.045159102353597762 0 -0.034594152121314614 -0.044839510320573921 0 -0.033960349896898653 -0.045720906464429015 0 -0.034034219481630344 -0.045159102353597762 0 -0.034594152121314614 -0.044839510320573921 0 -0.034034219481630344 -0.045159102353597762 0 -0.035268671910656982 -0.04416890175600046 0 -0.033960349896898653 -0.045720906464429015 0 -0.032506706928453324 -0.046709338723196207 0 -0.03314368859588801 -0.046010513013290351 0 -0.032506706928453324 -0.046709338723196207 0 -0.03314368859588801 -0.046010513013290351 0 -0.03243664547620901 -0.046746162389663844 0 -0.03314368859588801 -0.046010513013290351 0 -0.03243664547620901 -0.046746162389663844 0 -0.033068916034110954 -0.045880638076983796 0 -0.032506706928453324 -0.046709338723196207 0 -0.03243664547620901 -0.046746162389663844 0 -0.03176374565916093 -0.047808062966285418 0 -0.032506706928453324 -0.046709338723196207 0 -0.03176374565916093 -0.047808062966285418 0 -0.032181745253477799 -0.047150059683141794 0 -0.032696188620540544 -0.049641361191354358 0 -0.033538405935990646 -0.047478203116205563 0 -0.034289083775158199 -0.050754592387124514 0 -0.034479362692936631 -0.050310760400694286 0 -0.03491958419744122 -0.047725736666042178 0 -0.031190263834343649 -0.048711742611929031 0 -0.03176374565916093 -0.047808062966285418 0 -0.032181745253477799 -0.047150059683141794 0 -0.031190263834343649 -0.048711742611929031 0 -0.03176374565916093 -0.047808062966285418 0 -0.030895925678632832 -0.049130925829664204 0 -0.030895925678632832 -0.049130925829664204 0 -0.030412155697752227 -0.049803899690747548 0 -0.031695475467225641 -0.048047540189895058 0 -0.030520462369563073 -0.04965385817388656 0 -0.030667238912729534 -0.049547149721697742 0 -0.030412155697752227 -0.049803899690747548 0 -0.031695475467225641 -0.048047540189895058 0 -0.033146494559403564 -0.047507851532929322 0 -0.03176374565916093 -0.047808062966285418 0 -0.030895925678632832 -0.049130925829664204 0 -0.031695475467225641 -0.048047540189895058 0 -0.03243664547620901 -0.046746162389663844 0 -0.03176374565916093 -0.047808062966285418 0 -0.031695475467225641 -0.048047540189895058 0 -0.03243664547620901 -0.046746162389663844 0 -0.031695475467225641 -0.048047540189895058 0 -0.032842926770422151 -0.046391488814702404 0 -0.03243664547620901 -0.046746162389663844 0 -0.032842926770422151 -0.046391488814702404 0 -0.033068916034110954 -0.045880638076983796 0 -0.032842926770422151 -0.046391488814702404 0 -0.033146494559403564 -0.047507851532929322 0 -0.033396538221292474 -0.046092606894509572 0 -0.031695475467225641 -0.048047540189895058 0 -0.032842926770422151 -0.046391488814702404 0 -0.033146494559403564 -0.047507851532929322 0 -0.026929545792939876 -0.051526809102481037 0 -0.027148629182284251 -0.051857489191752371 0 -0.02694227683155884 -0.051907154005600621 0 -0.033146494559403564 -0.047507851532929322 0 -0.034004431927322228 -0.046114180918413156 0 -0.033396538221292474 -0.046092606894509572 0 -0.02824105822972672 -0.051883894668789343 0 -0.026929545792939876 -0.051526809102481037 0 -0.027148629182284251 -0.051857489191752371 0 -0.030667238912729534 -0.049547149721697742 0 -0.030495650808843137 -0.048763464287026617 0 -0.02824105822972672 -0.051883894668789343 0 -0.027148629182284251 -0.051857489191752371 0 -0.027609274763924847 -0.051091976070830526 0 -0.027148629182284251 -0.051857489191752371 0 -0.027609274763924847 -0.051091976070830526 0 -0.026732976837364589 -0.051573233881767044 0 -0.027609274763