<?xml version="1.0"?>
<VTKFile type="UnstructuredGrid" version="0.1" byte_order="LittleEndian">
<UnstructuredGrid>
<Piece NumberOfPoints="30304" NumberOfCells="10647">
<Points>
<DataArray type="Float64" NumberOfComponents="3" format="ascii">
-0.5 -0.5 0 -0.500000000000002 -0.47693188733330122 0 -0.47379777931805339 -0.47978553591419698 0 -0.5 -0.5 0 -0.47379777931805339 -0.47978553591419698 0 -0.4428711365444834 -0.50000000000000422 0 -0.500000000000002 -0.47693188733330122 0 -0.47379777931805339 -0.47978553591419698 0 -0.48580729017426189 -0.46020494795219152 0 -0.47379777931805339 -0.47978553591419698 0 -0.44772138120391519 -0.47558368972999449 0 -0.4428711365444834 -0.50000000000000422 0 -0.47379777931805339 -0.47978553591419698 0 -0.44772138120391519 -0.47558368972999449 0 -0.46632662755420151 -0.4631721346524047 0 -0.44772138120391519 -0.47558368972999449 0 -0.42772577177529608 -0.47736535992568813 0 -0.43748237930798423 -0.45602404302557698 0 -0.44772138120391519 -0.47558368972999449 0 -0.4428711365444834 -0.50000000000000422 0 -0.42772577177529608 -0.47736535992568813 0 -0.44772138120391519 -0.47558368972999449 0 -0.4428711365444834 -0.50000000000000422 0 -0.45257162586334621 -0.45116737945998481 0 -0.43954227734788298 -0.44019348703368938 0 -0.45742187052277827 -0.42675106918997519 0 -0.45257162586334621 -0.45116737945998481 0 -0.43954227734788298 -0.44019348703368938 0 -0.43748237930798423 -0.45602404302557698 0 -0.44772138120391519 -0.47558368972999449 0 -0.45257162586334621 -0.45116737945998481 0 -0.44772138120391519 -0.47558368972999449 0 -0.45257162586334621 -0.45116737945998481 0 -0.43748237930798423 -0.45602404302557698 0 -0.44772138120391519 -0.47558368972999449 0 -0.45257162586334621 -0.45116737945998481 0 -0.46632662755420151 -0.4631721346524047 0 -0.45257162586334621 -0.45116737945998481 0 -0.46632662755420151 -0.4631721346524047 0 -0.47161458034852077 -0.44347800857108283 0 -0.45257162586334621 -0.45116737945998481 0 -0.45742187052277827 -0.42675106918997519 0 -0.45257162586334621 -0.45116737945998481 0 -0.47161458034852077 -0.44347800857108283 0 -0.45742187052277827 -0.42675106918997519 0 -0.47161458034852077 -0.44347800857108283 0 -0.48580729017426189 -0.46020494795219152 0 -0.48409107064415968 -0.44285639959308182 0 -0.47161458034852077 -0.44347800857108283 0 -0.48580729017426189 -0.46020494795219152 0 -0.47379777931805339 -0.47978553591419698 0 -0.46632662755420151 -0.4631721346524047 0 -0.48580729017426189 -0.46020494795219152 0 -0.46632662755420151 -0.4631721346524047 0 -0.47161458034852077 -0.44347800857108283 0 -0.48580729017426189 -0.46020494795219152 0 -0.500000000000002 -0.47693188733330122 0 -0.48580729017426189 -0.46020494795219152 0 -0.48409107064415968 -0.44285639959308182 0 -0.49999999999999978 -0.46141888363643208 0 -0.48580729017426189 -0.46020494795219152 0 -0.500000000000002 -0.47693188733330122 0 -0.49999999999999978 -0.46141888363643208 0 -0.48580729017426189 -0.46020494795219152 0 -0.48409107064415968 -0.44285639959308182 0 -0.49999999999999978 -0.46141888363643208 0 -0.5 -0.43788683905921838 0 -0.48409107064415968 -0.44285639959308182 0 -0.49999999999999978 -0.46141888363643208 0 -0.5 -0.43788683905921838 0 -0.48475680030913848 -0.42350365186492789 0 -0.5 -0.41435479448200491 0 -0.48409107064415968 -0.44285639959308182 0 -0.5 -0.43788683905921838 0 -0.48475680030913848 -0.42350365186492789 0 -0.48475680030913848 -0.42350365186492789 0 -0.5 -0.41435479448200491 0 -0.48509290797520249 -0.40788013204782231 0 -0.48475680030913848 -0.42350365186492789 0 -0.47273369992790892 -0.41088168841517919 0 -0.46818214128831959 -0.42429391554973123 0 -0.48475680030913848 -0.42350365186492789 0 -0.48509290797520249 -0.40788013204782231 0 -0.47273369992790892 -0.41088168841517919 0 -0.48409107064415968 -0.44285639959308182 0 -0.46818214128831959 -0.42429391554973123 0 -0.48409107064415968 -0.44285639959308182 0 -0.47161458034852077 -0.44347800857108283 0 -0.46818214128831959 -0.42429391554973123 0 -0.48409107064415968 -0.44285639959308182 0 -0.48475680030913848 -0.42350365186492789 0 -0.46818214128831959 -0.42429391554973123 0 -0.5 -0.39082274990479121 0 -0.48075847564804669 -0.38131266874532121 0 -0.49795990391959521 -0.36675897456607509 0 -0.5 -0.39082274990479121 0 -0.47806548682247818 -0.39555381114468208 0 -0.48075847564804669 -0.38131266874532121 0 -0.48509290797520249 -0.40788013204782231 0 -0.5 -0.39082274990479121 0 -0.47806548682247818 -0.39555381114468208 0 -0.5 -0.41435479448200491 0 -0.48509290797520249 -0.40788013204782231 0 -0.5 -0.39082274990479121 0 -0.47806548682247818 -0.39555381114468208 0 -0.48075847564804669 -0.38131266874532121 0 -0.46355704737649922 -0.39586636292456873 0 -0.48509290797520249 -0.40788013204782231 0 -0.47273369992790892 -0.41088168841517919 0 -0.47806548682247818 -0.39555381114468208 0 -0.47273369992790892 -0.41088168841517919 0 -0.47806548682247818 -0.39555381114468208 0 -0.46355704737649922 -0.39586636292456873 0 -0.48075847564804669 -0.38131266874532121 0 -0.46355704737649922 -0.39586636292456873 0 -0.48075847564804669 -0.38131266874532121 0 -0.46904822906231192 -0.37934216015512301 0 -0.46355704737649922 -0.39586636292456873 0 -0.46904822906231192 -0.37934216015512301 0 -0.46306200925706431 -0.38334436101905672 0 -0.46355704737649922 -0.39586636292456873 0 -0.45828285422545501 -0.37775839673374978 0 -0.45724421358252332 -0.38287218582606192 0 -0.44910705772357151 -0.38088656275170529 0 -0.45828285422545501 -0.37775839673374978 0 -0.46306200925706431 -0.38334436101905672 0 -0.45724421358252332 -0.38287218582606192 0 -0.46904822906231192 -0.37934216015512301 0 -0.45828285422545501 -0.37775839673374978 0 -0.46306200925706431 -0.38334436101905672 0 -0.46904822906231192 -0.37934216015512301 0 -0.45828285422545501 -0.37775839673374978 0 -0.46113292643342341 -0.36884016995963692 0 -0.46306200925706431 -0.38334436101905672 0 -0.46027911897273449 -0.38798119703095091 0 -0.46355704737649922 -0.39586636292456873 0 -0.46027911897273449 -0.38798119703095091 0 -0.45684780384429441 -0.38712340626013092 0 -0.45967353963969532 -0.39262049658679771 0 -0.45684780384429441 -0.38712340626013092 0 -0.45475813640992641 -0.3900172085579699 0 -0.45967353963969532 -0.39262049658679771 0 -0.46306200925706431 -0.38334436101905672 0 -0.46027911897273449 -0.38798119703095091 0 -0.45724421358252332 -0.38287218582606192 0 -0.46027911897273449 -0.38798119703095091 0 -0.45724421358252332 -0.38287218582606192 0 -0.45684780384429441 -0.38712340626013092 0 -0.45724421358252332 -0.38287218582606192 0 -0.45684780384429441 -0.38712340626013092 0 -0.45241834368913492 -0.38592551648273432 0 -0.45684780384429441 -0.38712340626013092 0 -0.45475813640992641 -0.3900172085579699 0 -0.45241834368913492 -0.38592551648273432 0 -0.46355704737649922 -0.39586636292456873 0 -0.44473123261787512 -0.41179440949994123 0 -0.45967353963969532 -0.39262049658679771 0 -0.46355704737649922 -0.39586636292456873 0 -0.450639928806992 -0.39955048949785898 0 -0.45475813640992641 -0.3900172085579699 0 -0.45967353963969532 -0.39262049658679771 0 -0.45057174026394181 -0.39329251893994699 0 -0.45967353963969532 -0.39262049658679771 0 -0.450639928806992 -0.39955048949785898 0 -0.45057174026394181 -0.39329251893994699 0 -0.46027911897273449 -0.38798119703095091 0 -0.45967353963969532 -0.39262049658679771 0 -0.46355704737649922 -0.39586636292456873 0 -0.46355704737649922 -0.39586636292456873 0 -0.46048945894963872 -0.41130871605727187 0 -0.47273369992790892 -0.41088168841517919 0 -0.46355704737649922 -0.39586636292456873 0 -0.46048945894963872 -0.41130871605727187 0 -0.46355704737649922 -0.39586636292456873 0 -0.450639928806992 -0.39955048949785898 0 -0.44473123261787512 -0.41179440949994123 0 -0.450639928806992 -0.39955048949785898 0 -0.44365008016245688 -0.40354920297089519 0 -0.44473123261787512 -0.41179440949994123 0 -0.450639928806992 -0.39955048949785898 0 -0.44365008016245688 -0.40354920297089519 0 -0.44289772220370638 -0.3963764991119707 0 -0.44289772220370638 -0.3963764991119707 0 -0.43359954140455842 -0.39623099233135722 0 -0.43746072787427348 -0.40304241200503882 0 -0.44365008016245688 -0.40354920297089519 0 -0.44087922285895392 -0.40725459049962642 0 -0.43746072787427348 -0.40304241200503882 0 -0.44365008016245688 -0.40354920297089519 0 -0.44289772220370638 -0.3963764991119707 0 -0.43746072787427348 -0.40304241200503882 0 -0.44289772220370638 -0.3963764991119707 0 -0.44580112998699378 -0.38888918265967942 0 -0.43790399853946149 -0.38818498234118359 0 -0.44289772220370638 -0.3963764991119707 0 -0.43790399853946149 -0.38818498234118359 0 -0.43359954140455842 -0.39623099233135722 0 -0.44289772220370638 -0.3963764991119707 0 -0.45057174026394181 -0.39329251893994699 0 -0.44580112998699378 -0.38888918265967942 0 -0.450639928806992 -0.39955048949785898 0 -0.44289772220370638 -0.3963764991119707 0 -0.45057174026394181 -0.39329251893994699 0 -0.44580112998699378 -0.38888918265967942 0 -0.44175550520389573 -0.37927447930562908 0 -0.44910705772357151 -0.38088656275170529 0 -0.45241834368913492 -0.38592551648273432 0 -0.44580112998699378 -0.38888918265967942 0 -0.44910705772357151 -0.38088656275170529 0 -0.45724421358252332 -0.38287218582606192 0 -0.45241834368913492 -0.38592551648273432 0 -0.44910705772357151 -0.38088656275170529 0 -0.45057174026394181 -0.39329251893994699 0 -0.45241834368913492 -0.38592551648273432 0 -0.44580112998699378 -0.38888918265967942 0 -0.45475813640992641 -0.3900172085579699 0 -0.45057174026394181 -0.39329251893994699 0 -0.45241834368913492 -0.38592551648273432 0 -0.44580112998699378 -0.38888918265967942 0 -0.43790399853946149 -0.38818498234118359 0 -0.44175550520389573 -0.37927447930562908 0 -0.43790399853946149 -0.38818498234118359 0 -0.44175550520389573 -0.37927447930562908 0 -0.43284790781883542 -0.38096389532144392 0 -0.45828285422545501 -0.37775839673374978 0 -0.44910705772357151 -0.38088656275170529 0 -0.44934004656039028 -0.37193562334807989 0 -0.44175550520389573 -0.3792744793
[...]
<PointData Scalars="" Vectors="displacement," Tensors="">
<DataArray type="Float64" Name="displacement" NumberOfComponents="3" format="ascii">
0.024997170185559137 0.024999413114155669 0 0.02385246217955107 0.024998988049258538 0 0.024958808004469962 0.023872214951259012 0 0.024997170185559137 0.024999413114155669 0 0.024958808004469962 0.023872214951259012 0 0.024999720832149595 0.022145778107376266 0 0.02385246217955107 0.024998988049258538 0 0.024958808004469962 0.023872214951259012 0 0.025458760209974313 0.024311923199461915 0 0.024958808004469962 0.023872214951259012 0 0.02527020340750841 0.022790962284898748 0 0.024999720832149595 0.022145778107376266 0 0.024958808004469962 0.023872214951259012 0 0.02527020340750841 0.022790962284898748 0 0.025517713461011796 0.023564259718558397 0 0.026058441733321128 0.022009496848129358 0 0.025993403502596994 0.021306380923598559 0 0.026671283845742244 0.021534858173362422 0 0.026058441733321128 0.022009496848129358 0 0.025000089365817525 0.02214294934684749 0 0.025993403502596994 0.021306380923598559 0 0.025538334006788552 0.022372194636475651 0 0.025000086340238283 0.022143626624081262 0 0.026752263224916702 0.0218014096942921 0 0.026916092526064389 0.021487148867560448 0 0.027020843514927922 0.021722792485663608 0 0.026752263224916702 0.0218014096942921 0 0.026916092526064389 0.021487148867560448 0 0.026671283845742244 0.021534858173362422 0 0.025538334006788552 0.022372194636475651 0 0.026729089226093256 0.022374893674794446 0 0.026058441733321128 0.022009496848129358 0 0.026752263224916702 0.0218014096942921 0 0.026671283845742244 0.021534858173362422 0 0.02527020340750841 0.022790962284898748 0 0.025917704874165323 0.023110392354519175 0 0.025517713461011796 0.023564259718558397 0 0.025917704874165323 0.023110392354519175 0 0.025517713461011796 0.023564259718558397 0 0.026148786236480776 0.02375149098540565 0 0.026729089226093256 0.022374893674794446 0 0.0247755945869381 0.023661685303873917 0 0.025917704874165323 0.023110392354519175 0 0.026148786236480776 0.02375149098540565 0 0.026661044961213416 0.023292682753194387 0 0.023977405997538288 0.025288381776799394 0 0.02427548120802454 0.024917233558849842 0 0.022206234367338484 0.025733258813553792 0 0.022237000047982632 0.026338153525613597 0 0.023022307155376294 0.025662039335617427 0 0.024958808004469962 0.023872214951259012 0 0.025517713461011796 0.023564259718558397 0 0.025458760209974313 0.024311923199461915 0 0.025517713461011796 0.023564259718558397 0 0.026148786236480776 0.02375149098540565 0 0.025458760209974313 0.024311923199461915 0 0.02384676957242168 0.025000011375583688 0 0.02427548120802454 0.024917233558849842 0 0.022206234367338484 0.025733258813553792 0 0.023071063152066983 0.024999941371466119 0 0.023022307155376294 0.025662039335617427 0 0.023846503372275934 0.025000028991249767 0 0.023071063152066983 0.024999941371466119 0 0.023022307155376294 0.025662039335617427 0 0.022133886011768324 0.025774678703912184 0 0.02307092899972903 0.024999999319442433 0 0.021894330699376029 0.024999988771569823 0 0.022156968872149581 0.025763578350155435 0 0.023070779643151747 0.025000134292203033 0 0.021894330699376029 0.024999988771569823 0 0.021188724549121084 0.025733926932475958 0 0.020717769992453335 0.024999974707870715 0 0.022133886011768324 0.025774678703912184 0 0.021894330699376029 0.024999988771569823 0 0.021188724549121084 0.025733926932475958 0 0.021188724549121084 0.025733926932475958 0 0.020717769992453335 0.024999974707870715 0 0.020410721157540904 0.025714430203261137 0 0.021188724549121084 0.025733926932475958 0 0.020573351374598998 0.026302955389578154 0 0.021248792224454301 0.026515265021160857 0 0.021188724549121084 0.025733926932475958 0 0.020410721157540904 0.025714430203261137 0 0.020573351374598998 0.026302955389578154 0 0.022156968872149581 0.025763578350155435 0 0.021309522929217423 0.026469208988427251 0 0.022206234367338484 0.025733258813553792 0 0.022237000047982632 0.026338153525613597 0 0.021248792224454301 0.026515265021160857 0 0.022133886011768324 0.025774678703912184 0 0.021188724549121084 0.025733926932475958 0 0.021248792224454301 0.026515265021160857 0 0.019541166164002453 0.024999978167061149 0 0.019097766764687548 0.025917471319152154 0 0.018341707393125066 0.025097676970360795 0 0.019541166164002453 0.024999978167061149 0 0.019806628379206631 0.026047934168251741 0 0.019097766764687548 0.025917471319152154 0 0.020410721157540904 0.025714430203261137 0 0.019541166164002453 0.024999978167061149 0 0.019806628379206631 0.026047934168251741 0 0.020717769992453335 0.024999974707870715 0 0.020410721157540904 0.025714430203261137 0 0.019541166164002453 0.024999978167061149 0 0.019806628379206631 0.026047934168251741 0 0.019097766764687548 0.025917471319152154 0 0.019839983211095234 0.026739928153196729 0 0.020410721157540904 0.025714430203261137 0 0.020573351374598998 0.026302955389578154 0 0.019806628379206631 0.026047934168251741 0 0.020573351374598998 0.026302955389578154 0 0.019806628379206631 0.026047934168251741 0 0.019839983211095234 0.026739928153196729 0 0.021665361544596449 0.022394904157328924 0 0.022740123218678451 0.022534184106138656 0 0.024077661942653913 0.019078540454943074 0 0.024047690750255667 0.019434360578001617 0 0.024736030423181225 0.019562305602405641 0 0.024047690750255667 0.019434360578001617 0 0.024224146385900685 0.019619479218431303 0 0.024736030423181225 0.019562305602405641 0 0.024002413373354032 0.019789039353809375 0 0.024215980515277197 0.019818182949160192 0 0.024140377981287053 0.0201154348749671 0 0.024002413373354032 0.019789039353809375 0 0.024224146385900685 0.019619479218431303 0 0.024215980515277197 0.019818182949160192 0 0.024047690750255667 0.019434360578001617 0 0.024002413373354032 0.019789039353809375 0 0.024224146385900685 0.019619479218431303 0 0.024047690750255667 0.019434360578001617 0 0.024002413373354032 0.019789039353809375 0 0.023675618713416776 0.019719072718230826 0 0.024224146385900685 0.019619479218431303 0 0.02442291115954066 0.019701326909884208 0 0.024736030423181225 0.019562305602405641 0 0.02442291115954066 0.019701326909884208 0 0.024397109861863314 0.019825194527963497 0 0.024619299011262006 0.019710650445109598 0 0.024397109861863314 0.019825194527963497 0 0.024529850111731647 0.0198972340361507 0 0.024619299011262006 0.019710650445109598 0 0.024224146385900685 0.019619479218431303 0 0.02442291115954066 0.019701326909884208 0 0.024215980515277197 0.019818182949160192 0 0.02442291115954066 0.019701326909884208 0 0.024215980515277197 0.019818182949160192 0 0.024397109861863314 0.019825194527963497 0 0.024215980515277197 0.019818182949160192 0 0.024397109861863314 0.019825194527963497 0 0.024356172165911742 0.019988988418065689 0 0.024397109861863314 0.019825194527963497 0 0.024529850111731647 0.0198972340361507 0 0.024356172165911742 0.019988988418065689 0 0.022740123218678451 0.022534184106138656 0 0.025544003031828577 0.021007800865755513 0 0.024619299011262006 0.019710650445109598 0 0.024736030423181225 0.019562305602405641 0 0.024986582661293662 0.020037351107954557 0 0.024529850111731647 0.0198972340361507 0 0.024619299011262006 0.019710650445109598 0 0.024695449082324291 0.020051029918167134 0 0.024619299011262006 0.019710650445109598 0 0.024986582661293662 0.020037351107954557 0 0.024695449082324291 0.020051029918167134 0 0.02442291115954066 0.019701326909884208 0 0.024619299011262006 0.019710650445109598 0 0.024736030423181225 0.019562305602405641 0 0.022740123218678451 0.022534184106138656 0 0.021878413353682593 0.024520985077997853 0 0.020573351374598998 0.026302955389578154 0 0.019839983211095234 0.026739928153196729 0 0.020604402575620455 0.026892622297595568 0 0.024736030423181225 0.019562305602405641 0 0.024986582661293662 0.020037351107954557 0 0.025582870164050212 0.020238334252803223 0 0.024986582661293662 0.020037351107954557 0 0.02521981299406028 0.020294603054414367 0 0.025582870164050212 0.020238334252803223 0 0.024986582661293662 0.020037351107954557 0 0.02521981299406028 0.020294603054414367 0 0.02487206690145544 0.020351867076056296 0 0.02487206690145544 0.020351867076056296 0 0.024896162980956295 0.020776101542155118 0 0.025224834020008365 0.020574094696551408 0 0.02521981299406028 0.020294603054414367 0 0.025420855894606964 0.020380012696776788 0 0.025224834020008365 0.020574094696551408 0 0.02521981299406028 0.020294603054414367 0 0.02487206690145544 0.020351867076056296 0 0.025224834020008365 0.020574094696551408 0 0.02487206690145544 0.020351867076056296 0 0.024509038174827486 0.020246165993992548 0 0.024492945687605204 0.020588756760395937 0 0.02487206690145544 0.020351867076056296 0 0.024492945687605204 0.020588756760395937 0 0.024896162980956295 0.020776101542155118 0 0.02487206690145544 0.020351867076056296 0 0.024695449082324291 0.020051029918167134 0 0.024509038174827486 0.020246165993992548 0 0.024986582661293662 0.020037351107954557 0 0.02487206690145544 0.020351867076056296 0 0.024695449082324291 0.020051029918167134 0 0.024509038174827486 0.020246165993992548 0 0.024072412947205551 0.020423127403332592 0 0.024140377981287053 0.0201154348749671 0 0.024356172165911742 0.019988988418065689 0 0.024509038174827486 0.020246165993992548 0 0.024140377981287053 0.0201154348749671 0 0.024215980515277197 0.019818182949160192 0 0.024356172165911742 0.019988988418065689 0 0.024140377981287053 0.0201154348749671 0 0.024695449082324291 0.020051029918167134 0 0.024356172165911742 0.019988988418065689 0 0.024509038174827486 0.020246165993992548 0 0.024529850111731647 0.0198972340361507 0 0.024695449082324291 0.020051029918167134 0 0.024356172165911742 0.019988988418065689 0 0.024509038174827486 0.020246165993992548 0 0.024492945687605204 0.020588756760395937 0 0.024072412947205551 0.020423127403332592 0 0.024492945687605204 0.020588756760395937 0 0.024072412947205551 0.020423127403332592 0 0.024153147029172307 0.020826010199626911 0 0.024002413373354032 0.019789039353809375 0 0.024140377981287053 0.0201154348749671 0 0.023755985757105916 0.020092473930803583 0 0.024072412947205551 0.020423127403332592 0 0.024140377981287053 0.0201154348749671 0 0.023755985757105916 0.020092473930803583 0 0.022237000047982632 0.026338153525613597 0 0.021385452940001326 0.027044175160840116 0 0.021248792224454301 0.026515265021160857 0 0.023977405997538288 0.025288381776799394 0 0.0247755945869381 0.023661685303873917 0 0.024238131533628141 0.022621077784189567 0 0.02381649322445949 0.022533204989870725 0 0.023838767624618232 0.022949986398337931 0 0.021385452940001326 0.027044175160840116 0 0.021248792224454301 0.026515265021160857 0 0.020604402575620455 0.026892622297595568 0 0.023393753683526308 0.022448902268045162 0 0.02381649322445949 0.022533204989870725 0 0.023838767624618232 0.022949986398337931 0 0.020573351374598998 0.026302955389578154 0 0.021248792224454301 0.026515265021160857 0 0.020604402575620455 0.026892622297595568 0 0.0247755945869381 0.023661685303873917 0 0.021878413353682593 0.024520985077997853 0 0.0247755945869381 0.023661685303873917 0 0.025544003031828577 0.021007800865755513 0 0.027020843514927922 0.021722792485663608 0 0.027245165189057102 0.021518498942819576 0 0.026992481291920473 0.021444247226342077 0 0.025713093503611058 0.020110080115067389 0 0.025420855894606964 0.020380012696776788 0 0.025565862516169026 0.020623742623755274 0 0.02521981299406028 0.020294603054414367 0 0.025582870164050212 0.020238334252803223 0 0.025420855894606964 0.020380012696776788 0 0.025544003031828577 0.021007800865755513 0 0.025671695955283715 0.020688243301872959 0 0.025420855894606964 0.020380012696776788 0 0.025565862516169026 0.020623742623755274 0 0.025224834020008365 0.020574094696551408 0 0.026916092526064389 0.021487148867560448 0 0.027020843514927922 0.021722792485663608 0 0.026992481291920473 0.021444247226342077 0 0.027245165189057102 0.021518498942819576 0 0.026992481291920473 0.021444247226342077 0 0.026837831939392105 0.021223102242532797 0 0.026992481291920473 0.021444247226342077 0 0.026993807268577821 0.02123613236131526 0 0.026837831939392105 0.021223102242532797 0 0.026916092526064389 0.021487148867560448 0 0.026992481291920473 0.021444247226342077 0 0.026993807268577821 0.02123613236131526 0 0.026993807268577821 0.02123613236131526 0 0.026837831939392105 0.021223102242532797 0 0.026827359868416504 0.021472189858898653 0 0.025713093503611058 0.020110080115067389 0 0.026837831939392105 0.021223102242532797 0 0.025944339991090994 0.020996462435981193 0 0.025544003031828577 0.021007800865755513 0 0.027082004213283554 0.021247176231389768 0 0.025565862516169026 0.020623742623755274 0 0.025944339991090994 0.020996462435981193 0 0.025358337964889021 0.020886228262717844 0 0.025713093503611058 0.020110080115067389 0 0.025565862516169026 0.020623742623755274 0 0.025944339991090994 0.020996462435981193 0 0.02570910026309008 0.021327472082582656 0 0.025944339991090994 0.020996462435981193 0 0.025358337964889021 0.020886228262717844 0 0.026837831939392105 0.021223102242532797 0 0.025944339991090994 0.020996462435981193 0 0.026186580304666109 0.021373595480348943 0 0.02570910026309008 0.021327472082582656 0 0.025944339991090994 0.020996462435981193 0 0.026186580304666109 0.021373595480348943 0 0.02570910026309008 0.021327472082582656 0 0.026186580304666109 0.021373595480348943 0 0.025963186259819093 0.021707802230542493 0 0.026186580304666109 0.021373595480348943 0 0.025963186259819093 0.021707802230542493 0 0.026473673849609521 0.021578745269237282 0 0.02570910026309008 0.021327472082582656 0 0.025963186259819093 0.021707802230542493 0 0.025449560243204536 0.021745947454926261 0 0.025963186259819093 0.021707802230542493 0 0.025449560243204536 0.021745947454926261 0 0.025705920727788361 0.022151986439679874 0 0.025963186259819093 0.021707802230542493 0 0.026181790207532141 0.022056454114434219 0 0.025705920727788361 0.022151986439679874 0 0.025963186259819093 0.021707802230542493 0 0.026181790207532141 0.022056454114434219 0 0.026473673849609521 0.021578745269237282 0 0.02681311354596129 0.022021804392254585 0 0.02708143752949755 0.022493354728700319 0 0.027147161664303174 0.021239707958707981 0 0.026181790207532141 0.022056454114434219 0 0.026564026601032169 0.021935312461209902 0 0.026473673849609521 0.021578745269237282 0 0.026564026601032169 0.021935312461209902 0 0.02681311354596129 0.022021804392254585 0 0.026827359868416504 0.021472189858898653 0 0.027347602385631224 0.021643842590009371 0 0.027156173297096693 0.021165555227036278 0 0.026993807268577821 0.02123613236131526 0 0.026827359868416504 0.021472189858898653 0 0.027147161664303174 0.021239707958707981 0 0.02681311354596129 0.022021804392254585 0 0.026827359868416504 0.021472189858898653 0 0.027147161664303174 0.021239707958707981 0 0.026564026601032169 0.021935312461209902 0 0.026827359868416504 0.021472189858898653 0 0.026473673849609521 0.021578745269237282 0 0.026837831939392105 0.021223102242532797 0 0.026186580304666109 0.021373595480348943 0 0.026473673849609521 0.021578745269237282 0 0.026837831939392105 0.021223102242532797 0 0.026827359868416504 0.021472189858898653 0 0.026473673849609521 0.021578745269237282 0 0.024153147029172307 0.020826010199626911 0 0.024322707460654187 0.021289662689876889 0 0.023779973182036871 0.021112413384419451 0 0.024322707460654187 0.021289662689876889 0 0.023779973182036871 0.021112413384419451 0 0.023816729024756036 0.021592765229548373 0 0.024153147029172307 0.020826010199626911 0 0.023779973182036871 0.021112413384419451 0 0.023722733780393968 0.020666561389397885 0 0.024072412947205551 0.020423127403332592 0 0.024153147029172307 0.020826010199626911 0 0.023722733780393968 0.020666561389397885 0 0.024492945687605204 0.020588756760395937 0 0.024153147029172307 0.020826010199626911 0 0.024528216096206763 0.020924789375284688 0 0.024528216096206763 0.020924789375284688 0 0.024322707460654187 0.021289662689876889 0 0.024816486592790784 0.021172816276422712 0 0.024153147029172307 0.020826010199626911 0 0.024528216096206763 0.020924789375284688 0 0.024322707460654187 0.021289662689876889 0 0.024816486592790784 0.021172816276422712 0 0.024896162980956295 0.020776101542155118 0 0.025077875707173722 0.021038650450610766 0 0.024492945687605204 0.020588756760395937 0 0.024528216096206763 0.020924789375284688 0 0.024896162980956295 0.020776101542155118 0 0.024528216096206763 0.020924789375284688 0 0.024816486592790784 0.021172816276422712 0 0.024896162980956295 0.020776101542155118 0 0.024896162980956295 0.020776101542155118 0 0.025358337964889021 0.020886228262717844 0 0.025077875707173722 0.021038650450610766 0 0.024896162980956295 0.020776101542155118 0 0.025224834020008365 0.020574094696551408 0 0.025358337964889021 0.020886228262717844 0 0.025565862516169026 0.020623742623755274 0 0.025224834020008365 0.020574094696551408 0 0.025358337964889021 0.020886228262717844 0 0.025358337964889021 0.020886228262717844 0 0.025242621160891109 0.021320943224359581 0 0.025077875707173722 0.021038650450610766 0 0.02570910026309008 0.021327472082582656 0 0.025358337964889021 0.020886228262717844 0 0.025242621160891109 0.021320943224359581 0 0.024816486592790784 0.021172816276422712 0 0.025242621160891109 0.021320943224359581 0 0.025077875707173722 0.021038650450610766 0 0.025242621160891109 0.021320943224359581 0 0.025449560243204536 0.021745947454926261 0 0.024857864610585142 0.021709923754135531 0 0.02570910026309008 0.021327472082582656 0 0.025242621160891109 0.021320943224359581 0 0.025449560243204536 0.021745947454926261 0 0.025449560243204536 0.021745947454926261 0 0.025210192868870131 0.022105030853974115 0 0.025705920727788361 0.022151986439679874 0 0.025449560243204536 0.021745947454926261 0 0.025210192868870131 0.022105030853974115 0 0.024857864610585142 0.021709923754135531 0 0.025210192868870131 0.022105030853974115 0 0.024857864610585142 0.021709923754135531 0 0.024755385657527825 0.022238366826419061 0 0.024322707460654187 0.021289662689876889 0 0.024816486592790784 0.021172816276422712 0 0.024857864610585142 0.021709923754135531 0 0.024816486592790784 0.021172816276422712 0 0.025242621160891109 0.021320943224359581 0 0.024857864610585142 0.021709923754135531 0 0.024322707460654187 0.021289662689876889 0 0.024857864610585142 0.021709923754135531 0 0.024329279240883291 0.021873986733567229 0 0.024857864610585142 0.021709923754135531 0 0.024329279240883291 0.021873986733567229 0 0.024755385657527825 0.022238366826419061 0 0.024329279240883291 0.021873986733567229 0 0.023894771350541421 0.022052257297292786 0 0.02425844274018937 0.022381819873083134 0 0.024329279240883291 0.021873986733567229 0 0.023894771350541421 0.022052257297292786 0 0.023816729024756036 0.021592765229548373 0 0.024322707460654187 0.021289662689876889 0 0.024329279240883291 0.021873986733567229 0 0.023816729024756036 0.021592765229548373 0 0.023894771350541421 0.022052257297292786 0 0.02425844274018937 0.022381819873083134 0 0.023645569290975669 0.022307186660006049 0 0.024012380092405507 0.022863025593678952 0 0.02425844274018937 0.022381819873083134 0 0.023645569290975669 0.022307186660006049 0 0.024329279240883291 0.021873986733567229 0 0.02425844274018937 0.022381819873083134 0 0.024755385657527825 0.022238366826419061 0 0.02425844274018937 0.022381819873083134 0 0.024720627550204811 0.022703609631905271 0 0.024755385657527825 0.022238366826419061 0 0.024012380092405507 0.022863025593678952 0 0.02425844274018937 0.022381819873083134 0 0.024720627550204811 0.022703609631905271 0 0.024720627550204811 0.022703609631905271 0 0.024755385657527825 0.022238366826419061 0 0.02528272131277845 0.022674928219543072 0 0.025210192868870131 0.022105030853974115 0 0.02528272131277845 0.022674928219543072 0 0.025705920727788361 0.022151986439679874 0 0.025210192868870131 0.022105030853974115 0 0.024755385657527825 0.022238366826419061 0 0.02528272131277845 0.022674928219543072 0 0.025288957892027952 0.023337338374923508 0 0.024273874205