<?xml version="1.0"?>
<VTKFile type="UnstructuredGrid" version="0.1" byte_order="LittleEndian">
<UnstructuredGrid>
<Piece NumberOfPoints="30304" NumberOfCells="10647">
<Points>
<DataArray type="Float64" NumberOfComponents="3" format="ascii">
-0.5 -0.5 0 -0.500000000000002 -0.47693188733330122 0 -0.47379777931805339 -0.47978553591419698 0 -0.5 -0.5 0 -0.47379777931805339 -0.47978553591419698 0 -0.4428711365444834 -0.50000000000000422 0 -0.500000000000002 -0.47693188733330122 0 -0.47379777931805339 -0.47978553591419698 0 -0.48580729017426189 -0.46020494795219152 0 -0.47379777931805339 -0.47978553591419698 0 -0.44772138120391519 -0.47558368972999449 0 -0.4428711365444834 -0.50000000000000422 0 -0.47379777931805339 -0.47978553591419698 0 -0.44772138120391519 -0.47558368972999449 0 -0.46632662755420151 -0.4631721346524047 0 -0.44772138120391519 -0.47558368972999449 0 -0.42772577177529608 -0.47736535992568813 0 -0.43748237930798423 -0.45602404302557698 0 -0.44772138120391519 -0.47558368972999449 0 -0.4428711365444834 -0.50000000000000422 0 -0.42772577177529608 -0.47736535992568813 0 -0.44772138120391519 -0.47558368972999449 0 -0.4428711365444834 -0.50000000000000422 0 -0.45257162586334621 -0.45116737945998481 0 -0.43954227734788298 -0.44019348703368938 0 -0.45742187052277827 -0.42675106918997519 0 -0.45257162586334621 -0.45116737945998481 0 -0.43954227734788298 -0.44019348703368938 0 -0.43748237930798423 -0.45602404302557698 0 -0.44772138120391519 -0.47558368972999449 0 -0.45257162586334621 -0.45116737945998481 0 -0.44772138120391519 -0.47558368972999449 0 -0.45257162586334621 -0.45116737945998481 0 -0.43748237930798423 -0.45602404302557698 0 -0.44772138120391519 -0.47558368972999449 0 -0.45257162586334621 -0.45116737945998481 0 -0.46632662755420151 -0.4631721346524047 0 -0.45257162586334621 -0.45116737945998481 0 -0.46632662755420151 -0.4631721346524047 0 -0.47161458034852077 -0.44347800857108283 0 -0.45257162586334621 -0.45116737945998481 0 -0.45742187052277827 -0.42675106918997519 0 -0.45257162586334621 -0.45116737945998481 0 -0.47161458034852077 -0.44347800857108283 0 -0.45742187052277827 -0.42675106918997519 0 -0.47161458034852077 -0.44347800857108283 0 -0.48580729017426189 -0.46020494795219152 0 -0.48409107064415968 -0.44285639959308182 0 -0.47161458034852077 -0.44347800857108283 0 -0.48580729017426189 -0.46020494795219152 0 -0.47379777931805339 -0.47978553591419698 0 -0.46632662755420151 -0.4631721346524047 0 -0.48580729017426189 -0.46020494795219152 0 -0.46632662755420151 -0.4631721346524047 0 -0.47161458034852077 -0.44347800857108283 0 -0.48580729017426189 -0.46020494795219152 0 -0.500000000000002 -0.47693188733330122 0 -0.48580729017426189 -0.46020494795219152 0 -0.48409107064415968 -0.44285639959308182 0 -0.49999999999999978 -0.46141888363643208 0 -0.48580729017426189 -0.46020494795219152 0 -0.500000000000002 -0.47693188733330122 0 -0.49999999999999978 -0.46141888363643208 0 -0.48580729017426189 -0.46020494795219152 0 -0.48409107064415968 -0.44285639959308182 0 -0.49999999999999978 -0.46141888363643208 0 -0.5 -0.43788683905921838 0 -0.48409107064415968 -0.44285639959308182 0 -0.49999999999999978 -0.46141888363643208 0 -0.5 -0.43788683905921838 0 -0.48475680030913848 -0.42350365186492789 0 -0.5 -0.41435479448200491 0 -0.48409107064415968 -0.44285639959308182 0 -0.5 -0.43788683905921838 0 -0.48475680030913848 -0.42350365186492789 0 -0.48475680030913848 -0.42350365186492789 0 -0.5 -0.41435479448200491 0 -0.48509290797520249 -0.40788013204782231 0 -0.48475680030913848 -0.42350365186492789 0 -0.47273369992790892 -0.41088168841517919 0 -0.46818214128831959 -0.42429391554973123 0 -0.48475680030913848 -0.42350365186492789 0 -0.48509290797520249 -0.40788013204782231 0 -0.47273369992790892 -0.41088168841517919 0 -0.48409107064415968 -0.44285639959308182 0 -0.46818214128831959 -0.42429391554973123 0 -0.48409107064415968 -0.44285639959308182 0 -0.47161458034852077 -0.44347800857108283 0 -0.46818214128831959 -0.42429391554973123 0 -0.48409107064415968 -0.44285639959308182 0 -0.48475680030913848 -0.42350365186492789 0 -0.46818214128831959 -0.42429391554973123 0 -0.5 -0.39082274990479121 0 -0.48075847564804669 -0.38131266874532121 0 -0.49795990391959521 -0.36675897456607509 0 -0.5 -0.39082274990479121 0 -0.47806548682247818 -0.39555381114468208 0 -0.48075847564804669 -0.38131266874532121 0 -0.48509290797520249 -0.40788013204782231 0 -0.5 -0.39082274990479121 0 -0.47806548682247818 -0.39555381114468208 0 -0.5 -0.41435479448200491 0 -0.48509290797520249 -0.40788013204782231 0 -0.5 -0.39082274990479121 0 -0.47806548682247818 -0.39555381114468208 0 -0.48075847564804669 -0.38131266874532121 0 -0.46355704737649922 -0.39586636292456873 0 -0.48509290797520249 -0.40788013204782231 0 -0.47273369992790892 -0.41088168841517919 0 -0.47806548682247818 -0.39555381114468208 0 -0.47273369992790892 -0.41088168841517919 0 -0.47806548682247818 -0.39555381114468208 0 -0.46355704737649922 -0.39586636292456873 0 -0.48075847564804669 -0.38131266874532121 0 -0.46355704737649922 -0.39586636292456873 0 -0.48075847564804669 -0.38131266874532121 0 -0.46904822906231192 -0.37934216015512301 0 -0.46355704737649922 -0.39586636292456873 0 -0.46904822906231192 -0.37934216015512301 0 -0.46306200925706431 -0.38334436101905672 0 -0.46355704737649922 -0.39586636292456873 0 -0.45828285422545501 -0.37775839673374978 0 -0.45724421358252332 -0.38287218582606192 0 -0.44910705772357151 -0.38088656275170529 0 -0.45828285422545501 -0.37775839673374978 0 -0.46306200925706431 -0.38334436101905672 0 -0.45724421358252332 -0.38287218582606192 0 -0.46904822906231192 -0.37934216015512301 0 -0.45828285422545501 -0.37775839673374978 0 -0.46306200925706431 -0.38334436101905672 0 -0.46904822906231192 -0.37934216015512301 0 -0.45828285422545501 -0.37775839673374978 0 -0.46113292643342341 -0.36884016995963692 0 -0.46306200925706431 -0.38334436101905672 0 -0.46027911897273449 -0.38798119703095091 0 -0.46355704737649922 -0.39586636292456873 0 -0.46027911897273449 -0.38798119703095091 0 -0.45684780384429441 -0.38712340626013092 0 -0.45967353963969532 -0.39262049658679771 0 -0.45684780384429441 -0.38712340626013092 0 -0.45475813640992641 -0.3900172085579699 0 -0.45967353963969532 -0.39262049658679771 0 -0.46306200925706431 -0.38334436101905672 0 -0.46027911897273449 -0.38798119703095091 0 -0.45724421358252332 -0.38287218582606192 0 -0.46027911897273449 -0.38798119703095091 0 -0.45724421358252332 -0.38287218582606192 0 -0.45684780384429441 -0.38712340626013092 0 -0.45724421358252332 -0.38287218582606192 0 -0.45684780384429441 -0.38712340626013092 0 -0.45241834368913492 -0.38592551648273432 0 -0.45684780384429441 -0.38712340626013092 0 -0.45475813640992641 -0.3900172085579699 0 -0.45241834368913492 -0.38592551648273432 0 -0.46355704737649922 -0.39586636292456873 0 -0.44473123261787512 -0.41179440949994123 0 -0.45967353963969532 -0.39262049658679771 0 -0.46355704737649922 -0.39586636292456873 0 -0.450639928806992 -0.39955048949785898 0 -0.45475813640992641 -0.3900172085579699 0 -0.45967353963969532 -0.39262049658679771 0 -0.45057174026394181 -0.39329251893994699 0 -0.45967353963969532 -0.39262049658679771 0 -0.450639928806992 -0.39955048949785898 0 -0.45057174026394181 -0.39329251893994699 0 -0.46027911897273449 -0.38798119703095091 0 -0.45967353963969532 -0.39262049658679771 0 -0.46355704737649922 -0.39586636292456873 0 -0.46355704737649922 -0.39586636292456873 0 -0.46048945894963872 -0.41130871605727187 0 -0.47273369992790892 -0.41088168841517919 0 -0.46355704737649922 -0.39586636292456873 0 -0.46048945894963872 -0.41130871605727187 0 -0.46355704737649922 -0.39586636292456873 0 -0.450639928806992 -0.39955048949785898 0 -0.44473123261787512 -0.41179440949994123 0 -0.450639928806992 -0.39955048949785898 0 -0.44365008016245688 -0.40354920297089519 0 -0.44473123261787512 -0.41179440949994123 0 -0.450639928806992 -0.39955048949785898 0 -0.44365008016245688 -0.40354920297089519 0 -0.44289772220370638 -0.3963764991119707 0 -0.44289772220370638 -0.3963764991119707 0 -0.43359954140455842 -0.39623099233135722 0 -0.43746072787427348 -0.40304241200503882 0 -0.44365008016245688 -0.40354920297089519 0 -0.44087922285895392 -0.40725459049962642 0 -0.43746072787427348 -0.40304241200503882 0 -0.44365008016245688 -0.40354920297089519 0 -0.44289772220370638 -0.3963764991119707 0 -0.43746072787427348 -0.40304241200503882 0 -0.44289772220370638 -0.3963764991119707 0 -0.44580112998699378 -0.38888918265967942 0 -0.43790399853946149 -0.38818498234118359 0 -0.44289772220370638 -0.3963764991119707 0 -0.43790399853946149 -0.38818498234118359 0 -0.43359954140455842 -0.39623099233135722 0 -0.44289772220370638 -0.3963764991119707 0 -0.45057174026394181 -0.39329251893994699 0 -0.44580112998699378 -0.38888918265967942 0 -0.450639928806992 -0.39955048949785898 0 -0.44289772220370638 -0.3963764991119707 0 -0.45057174026394181 -0.39329251893994699 0 -0.44580112998699378 -0.38888918265967942 0 -0.44175550520389573 -0.37927447930562908 0 -0.44910705772357151 -0.38088656275170529 0 -0.45241834368913492 -0.38592551648273432 0 -0.44580112998699378 -0.38888918265967942 0 -0.44910705772357151 -0.38088656275170529 0 -0.45724421358252332 -0.38287218582606192 0 -0.45241834368913492 -0.38592551648273432 0 -0.44910705772357151 -0.38088656275170529 0 -0.45057174026394181 -0.39329251893994699 0 -0.45241834368913492 -0.38592551648273432 0 -0.44580112998699378 -0.38888918265967942 0 -0.45475813640992641 -0.3900172085579699 0 -0.45057174026394181 -0.39329251893994699 0 -0.45241834368913492 -0.38592551648273432 0 -0.44580112998699378 -0.38888918265967942 0 -0.43790399853946149 -0.38818498234118359 0 -0.44175550520389573 -0.37927447930562908 0 -0.43790399853946149 -0.38818498234118359 0 -0.44175550520389573 -0.37927447930562908 0 -0.43284790781883542 -0.38096389532144392 0 -0.45828285422545501 -0.37775839673374978 0 -0.44910705772357151 -0.38088656275170529 0 -0.44934004656039028 -0.37193562334807989 0 -0.44175550520389573 -0.3792744793
[...]
<PointData Scalars="" Vectors="displacement," Tensors="">
<DataArray type="Float64" Name="displacement" NumberOfComponents="3" format="ascii">
5.5842870417039409e-07 0.024997636696267134 0 -8.5954778106900692e-07 0.023850419243054463 0 -1.2118078148209793e-05 0.024784941470630751 0 5.5842870417039409e-07 0.024997636696267134 0 -1.2118078148209793e-05 0.024784941470630751 0 -2.1790082252131209e-07 0.025000848550089622 0 -8.5954778106900692e-07 0.023850419243054463 0 -1.2118078148209793e-05 0.024784941470630751 0 -0.00043674736357956812 0.024408880621018883 0 -1.2118078148209793e-05 0.024784941470630751 0 -0.00012559696591159789 0.025012304515914709 0 -2.1790082252131209e-07 0.025000848550089622 0 -1.2118078148209793e-05 0.024784941470630751 0 -0.00012559696591159789 0.025012304515914709 0 -0.00031421438434993425 0.024813533023091399 0 -4.6205530811972172e-05 0.024810527732750096 0 -2.8572710013281235e-05 0.024868093585995839 0 -9.301445950091193e-05 0.024731973134381243 0 -4.6205530811972172e-05 0.024810527732750096 0 -5.8057924361153309e-09 0.024999689895497459 0 -2.8572710013281235e-05 0.024868093585995839 0 -9.1924510372434456e-05 0.024901923098482704 0 -5.6771457011303571e-08 0.024999964077979948 0 -0.00010631959689005001 0.024725571694700885 0 -8.4347714285082793e-05 0.024667126500672036 0 1.1397157147269045e-06 0.024765391641394865 0 -0.00010631959689005001 0.024725571694700885 0 -8.4347714285082793e-05 0.024667126500672036 0 -9.301445950091193e-05 0.024731973134381243 0 -9.1924510372434456e-05 0.024901923098482704 0 -0.00036231178702260115 0.024984752152410632 0 -4.6205530811972172e-05 0.024810527732750096 0 -0.00010631959689005001 0.024725571694700885 0 -9.301445950091193e-05 0.024731973134381243 0 -0.00012559696591159789 0.025012304515914709 0 -0.00049390211071499821 0.024992178627102509 0 -0.00031421438434993425 0.024813533023091399 0 -0.00049390211071499821 0.024992178627102509 0 -0.00031421438434993425 0.024813533023091399 0 -0.00063418217350587997 0.024695674494729262 0 -0.00036231178702260115 0.024984752152410632 0 -3.3119353626860028e-06 0.023602988613582468 0 -0.00049390211071499821 0.024992178627102509 0 -0.00063418217350587997 0.024695674494729262 0 -0.00086491663130400373 0.024898718164516137 0 -0.00022111777988950059 0.023051981495628406 0 -0.00019402459818121945 0.023415530133557513 0 0.00028887514045132561 0.022091593814600505 0 0.00016528167933289295 0.021545994505176105 0 -0.00010392183033141007 0.022457398747322797 0 -1.2118078148209793e-05 0.024784941470630751 0 -0.00031421438434993425 0.024813533023091399 0 -0.00043674736357956812 0.024408880621018883 0 -0.00031421438434993425 0.024813533023091399 0 -0.00063418217350587997 0.024695674494729262 0 -0.00043674736357956812 0.024408880621018883 0 3.4842228529365829e-08 0.023846260115924004 0 -0.00019402459818121945 0.023415530133557513 0 0.00028887514045132561 0.022091593814600505 0 2.8162669856985513e-07 0.02307212544883543 0 -0.00010392183033141007 0.022457398747322797 0 -5.4377732926935967e-07 0.023844981855450264 0 2.8162669856985513e-07 0.02307212544883543 0 -0.00010392183033141007 0.022457398747322797 0 -4.59802312974817e-05 0.021462660792520159 0 -7.1451495178420165e-07 0.023069681386916834 0 3.6984159114360034e-07 0.021894169289954479 0 0.00015455151628331122 0.021803718333179685 0 1.6659928273590737e-08 0.023070421608595411 0 3.6984159114360034e-07 0.021894169289954479 0 0.00019394974787424621 0.02106918338268322 0 3.1673329941407355e-07 0.020717843106842913 0 -4.59802312974817e-05 0.021462660792520159 0 3.6984159114360034e-07 0.021894169289954479 0 0.00019394974787424621 0.02106918338268322 0 0.00019394974787424621 0.02106918338268322 0 3.1673329941407355e-07 0.020717843106842913 0 0.00014935129064369792 0.020598386651097884 0 0.00019394974787424621 0.02106918338268322 0 0.00022894643406837662 0.020841551669866145 0 0.00030105320545464334 0.02107883156522071 0 0.00019394974787424621 0.02106918338268322 0 0.00014935129064369792 0.020598386651097884 0 0.00022894643406837662 0.020841551669866145 0 0.00015455151628331122 0.021803718333179685 0 0.00028257133300170473 0.021192944247301327 0 0.00028887514045132561 0.022091593814600505 0 0.00016528167933289295 0.021545994505176105 0 0.00030105320545464334 0.02107883156522071 0 -4.59802312974817e-05 0.021462660792520159 0 0.00019394974787424621 0.02106918338268322 0 0.00030105320545464334 0.02107883156522071 0 4.1142013464078463e-07 0.019541173323695704 0 -0.0002093818079661245 0.02008496240849415 0 -5.0911399973854419e-05 0.0185359988647672 0 4.1142013464078463e-07 0.019541173323695704 0 2.7108922104077121e-05 0.02046108653438454 0 -0.0002093818079661245 0.02008496240849415 0 0.00014935129064369792 0.020598386651097884 0 4.1142013464078463e-07 0.019541173323695704 0 2.7108922104077121e-05 0.02046108653438454 0 3.1673329941407355e-07 0.020717843106842913 0 0.00014935129064369792 0.020598386651097884 0 4.1142013464078463e-07 0.019541173323695704 0 2.7108922104077121e-05 0.02046108653438454 0 -0.0002093818079661245 0.02008496240849415 0 6.9318694075885034e-06 0.02089550367879461 0 0.00014935129064369792 0.020598386651097884 0 0.00022894643406837662 0.020841551669866145 0 2.7108922104077121e-05 0.02046108653438454 0 0.00022894643406837662 0.020841551669866145 0 2.7108922104077121e-05 0.02046108653438454 0 6.9318694075885034e-06 0.02089550367879461 0 -0.00017526494014777374 0.02168072557649136 0 -0.00025771809744375818 0.022555438181522225 0 -0.00035415168536772278 0.023003312600335557 0 -0.00041626585639238938 0.023310273281801935 0 -0.00011451846390354374 0.023487063696222745 0 -0.00041626585639238938 0.023310273281801935 0 -0.00034572744671546068 0.023466266493316415 0 -0.00011451846390354374 0.023487063696222745 0 -0.00044656342640782206 0.02357327955317734 0 -0.00035675122183379047 0.023601826998876609 0 -0.00038813801865069866 0.023772406909440623 0 -0.00044656342640782206 0.02357327955317734 0 -0.00034572744671546068 0.023466266493316415 0 -0.00035675122183379047 0.023601826998876609 0 -0.00041626585639238938 0.023310273281801935 0 -0.00044656342640782206 0.02357327955317734 0 -0.00034572744671546068 0.023466266493316415 0 -0.00041626585639238938 0.023310273281801935 0 -0.00044656342640782206 0.02357327955317734 0 -0.00064729101806817665 0.023483054155230117 0 -0.00034572744671546068 0.023466266493316415 0 -0.00026472777158386519 0.023541731044878268 0 -0.00011451846390354374 0.023487063696222745 0 -0.00026472777158386519 0.023541731044878268 0 -0.00028468342207211596 0.023616011549881685 0 -0.00018401478693443792 0.023564830658814939 0 -0.00028468342207211596 0.023616011549881685 0 -0.00024131163060709478 0.023663874857375717 0 -0.00018401478693443792 0.023564830658814939 0 -0.00034572744671546068 0.023466266493316415 0 -0.00026472777158386519 0.023541731044878268 0 -0.00035675122183379047 0.023601826998876609 0 -0.00026472777158386519 0.023541731044878268 0 -0.00035675122183379047 0.023601826998876609 0 -0.00028468342207211596 0.023616011549881685 0 -0.00035675122183379047 0.023601826998876609 0 -0.00028468342207211596 0.023616011549881685 0 -0.00030885002723418469 0.023707950352080891 0 -0.00028468342207211596 0.023616011549881685 0 -0.00024131163060709478 0.023663874857375717 0 -0.00030885002723418469 0.023707950352080891 0 -0.00025771809744375818 0.022555438181522225 0 2.1607866712525579e-06 0.024149653273792794 0 -0.00018401478693443792 0.023564830658814939 0 -0.00011451846390354374 0.023487063696222745 0 -0.00011328102490914655 0.023761773273985293 0 -0.00024131163060709478 0.023663874857375717 0 -0.00018401478693443792 0.023564830658814939 0 -0.00020307094479622234 0.023752550422464037 0 -0.00018401478693443792 0.023564830658814939 0 -0.00011328102490914655 0.023761773273985293 0 -0.00020307094479622234 0.023752550422464037 0 -0.00026472777158386519 0.023541731044878268 0 -0.00018401478693443792 0.023564830658814939 0 -0.00011451846390354374 0.023487063696222745 0 -0.00025771809744375818 0.022555438181522225 0 5.4431802563535812e-05 0.022127731346597491 0 0.00022894643406837662 0.020841551669866145 0 6.9318694075885034e-06 0.02089550367879461 0 0.00024290385374405054 0.021017094121348643 0 -0.00011451846390354374 0.023487063696222745 0 -0.00011328102490914655 0.023761773273985293 0 4.7181009344460333e-05 0.023903088068503428 0 -0.00011328102490914655 0.023761773273985293 0 -8.6473582323899967e-05 0.023912010282840849 0 4.7181009344460333e-05 0.023903088068503428 0 -0.00011328102490914655 0.023761773273985293 0 -8.6473582323899967e-05 0.023912010282840849 0 -0.00018094613022008967 0.02390185056114932 0 -0.00018094613022008967 0.02390185056114932 0 -0.00019696624143683355 0.024039008651212671 0 -0.00011365733962735493 0.024019256431062268 0 -8.6473582323899967e-05 0.023912010282840849 0 -5.1162517015788379e-05 0.023984833851874901 0 -0.00011365733962735493 0.024019256431062268 0 -8.6473582323899967e-05 0.023912010282840849 0 -0.00018094613022008967 0.02390185056114932 0 -0.00011365733962735493 0.024019256431062268 0 -0.00018094613022008967 0.02390185056114932 0 -0.00027533693564836997 0.023833587547753707 0 -0.00029015863978606413 0.023949360492459621 0 -0.00018094613022008967 0.02390185056114932 0 -0.00029015863978606413 0.023949360492459621 0 -0.00019696624143683355 0.024039008651212671 0 -0.00018094613022008967 0.02390185056114932 0 -0.00020307094479622234 0.023752550422464037 0 -0.00027533693564836997 0.023833587547753707 0 -0.00011328102490914655 0.023761773273985293 0 -0.00018094613022008967 0.02390185056114932 0 -0.00020307094479622234 0.023752550422464037 0 -0.00027533693564836997 0.023833587547753707 0 -0.00040671088433529755 0.023879984097583309 0 -0.00038813801865069866 0.023772406909440623 0 -0.00030885002723418469 0.023707950352080891 0 -0.00027533693564836997 0.023833587547753707 0 -0.00038813801865069866 0.023772406909440623 0 -0.00035675122183379047 0.023601826998876609 0 -0.00030885002723418469 0.023707950352080891 0 -0.00038813801865069866 0.023772406909440623 0 -0.00020307094479622234 0.023752550422464037 0 -0.00030885002723418469 0.023707950352080891 0 -0.00027533693564836997 0.023833587547753707 0 -0.00024131163060709478 0.023663874857375717 0 -0.00020307094479622234 0.023752550422464037 0 -0.00030885002723418469 0.023707950352080891 0 -0.00027533693564836997 0.023833587547753707 0 -0.00029015863978606413 0.023949360492459621 0 -0.00040671088433529755 0.023879984097583309 0 -0.00029015863978606413 0.023949360492459621 0 -0.00040671088433529755 0.023879984097583309 0 -0.00037253151024440153 0.023983495016482989 0 -0.00044656342640782206 0.02357327955317734 0 -0.00038813801865069866 0.023772406909440623 0 -0.00053044713943727105 0.023786093051052747 0 -0.00040671088433529755 0.023879984097583309 0 -0.00038813801865069866 0.023772406909440623 0 -0.00053044713943727105 0.023786093051052747 0 0.00016528167933289295 0.021545994505176105 0 0.00027983715893778466 0.021032657492741913 0 0.00030105320545464334 0.02107883156522071 0 -0.00022111777988950059 0.023051981495628406 0 -3.3119353626860028e-06 0.023602988613582468 0 0.00029111305249477184 0.023199413334652797 0 -7.8024983624714933e-05 0.023122072305102898 0 -6.6535900192206041e-05 0.023505399862781932 0 0.00027983715893778466 0.021032657492741913 0 0.00030105320545464334 0.02107883156522071 0 0.00024290385374405054 0.021017094121348643 0 -0.00044870905909198168 0.023044238366191013 0 -7.8024983624714933e-05 0.023122072305102898 0 -6.6535900192206041e-05 0.023505399862781932 0 0.00022894643406837662 0.020841551669866145 0 0.00030105320545464334 0.02107883156522071 0 0.00024290385374405054 0.021017094121348643 0 -3.3119353626860028e-06 0.023602988613582468 0 5.4431802563535812e-05 0.022127731346597491 0 -3.3119353626860028e-06 0.023602988613582468 0 2.1607866712525579e-06 0.024149653273792794 0 1.1397157147269045e-06 0.024765391641394865 0 0.00015662058806092583 0.024686926916556658 0 3.1942291156974907e-06 0.024640607314088951 0 -3.5533398539962585e-06 0.023946317127303839 0 -5.1162517015788379e-05 0.023984833851874901 0 -6.0566202617735838e-05 0.02407386868716252 0 -8.6473582323899967e-05 0.023912010282840849 0 4.7181009344460333e-05 0.023903088068503428 0 -5.1162517015788379e-05 0.023984833851874901 0 2.1607866712525579e-06 0.024149653273792794 0 2.6701277506989407e-05 0.024068771931233624 0 -5.1162517015788379e-05 0.023984833851874901 0 -6.0566202617735838e-05 0.02407386868716252 0 -0.00011365733962735493 0.024019256431062268 0 -8.4347714285082793e-05 0.024667126500672036 0 1.1397157147269045e-06 0.024765391641394865 0 3.1942291156974907e-06 0.024640607314088951 0 0.00015662058806092583 0.024686926916556658 0 3.1942291156974907e-06 0.024640607314088951 0 -5.5860975126720707e-07 0.02444098113010278 0 3.1942291156974907e-06 0.024640607314088951 0 -8.2099407657746929e-05 0.02455364836661459 0 -5.5860975126720707e-07 0.02444098113010278 0 -8.4347714285082793e-05 0.024667126500672036 0 3.1942291156974907e-06 0.024640607314088951 0 -8.2099407657746929e-05 0.02455364836661459 0 -8.2099407657746929e-05 0.02455364836661459 0 -5.5860975126720707e-07 0.02444098113010278 0 -5.2086723113707743e-05 0.024443014624855063 0 -3.5533398539962585e-06 0.023946317127303839 0 -5.5860975126720707e-07 0.02444098113010278 0 -4.4138725946860035e-05 0.024226767971889118 0 2.1607866712525579e-06 0.024149653273792794 0 4.1087162536242137e-05 0.024464247959190298 0 -6.0566202617735838e-05 0.02407386868716252 0 -4.4138725946860035e-05 0.024226767971889118 0 -0.00011087099596061788 0.024119014271049375 0 -3.5533398539962585e-06 0.023946317127303839 0 -6.0566202617735838e-05 0.02407386868716252 0 -4.4138725946860035e-05 0.024226767971889118 0 -8.2717324050665615e-05 0.024245544258940672 0 -4.4138725946860035e-05 0.024226767971889118 0 -0.00011087099596061788 0.024119014271049375 0 -5.5860975126720707e-07 0.02444098113010278 0 -4.4138725946860035e-05 0.024226767971889118 0 -3.8738433791474977e-05 0.024322620750206251 0 -8.2717324050665615e-05 0.024245544258940672 0 -4.4138725946860035e-05 0.024226767971889118 0 -3.8738433791474977e-05 0.024322620750206251 0 -8.2717324050665615e-05 0.024245544258940672 0 -3.8738433791474977e-05 0.024322620750206251 0 -6.7835230973628614e-05 0.024309561250648013 0 -3.8738433791474977e-05 0.024322620750206251 0 -6.7835230973628614e-05 0.024309561250648013 0 -3.6290257682939697e-05 0.024374791469295887 0 -8.2717324050665615e-05 0.024245544258940672 0 -6.7835230973628614e-05 0.024309561250648013 0 -0.00012740819007335137 0.024257748552044173 0 -6.7835230973628614e-05 0.024309561250648013 0 -0.00012740819007335137 0.024257748552044173 0 -0.00010809369738521863 0.024299846621642161 0 -6.7835230973628614e-05 0.024309561250648013 0 -6.5662291913162543e-05 0.02432841689282143 0 -0.00010809369738521863 0.024299846621642161 0 -6.7835230973628614e-05 0.024309561250648013 0 -6.5662291913162543e-05 0.02432841689282143 0 -3.6290257682939697e-05 0.024374791469295887 0 -6.178077097278535e-05 0.024368975182782384 0 -9.0945033465676293e-05 0.024302753308368171 0 -0.00012459604336862294 0.024559022865774847 0 -6.5662291913162543e-05 0.02432841689282143 0 -5.2622683112902743e-05 0.024360860389611116 0 -3.6290257682939697e-05 0.024374791469295887 0 -5.2622683112902743e-05 0.024360860389611116 0 -6.178077097278535e-05 0.024368975182782384 0 -5.2086723113707743e-05 0.024443014624855063 0 -0.00010061522503973194 0.02473364844180935 0 -0.00013587435905060231 0.024503998872339512 0 -8.2099407657746929e-05 0.02455364836661459 0 -5.2086723113707743e-05 0.024443014624855063 0 -0.00012459604336862294 0.024559022865774847 0 -6.178077097278535e-05 0.024368975182782384 0 -5.2086723113707743e-05 0.024443014624855063 0 -0.00012459604336862294 0.024559022865774847 0 -5.2622683112902743e-05 0.024360860389611116 0 -5.2086723113707743e-05 0.024443014624855063 0 -3.6290257682939697e-05 0.024374791469295887 0 -5.5860975126720707e-07 0.02444098113010278 0 -3.8738433791474977e-05 0.024322620750206251 0 -3.6290257682939697e-05 0.024374791469295887 0 -5.5860975126720707e-07 0.02444098113010278 0 -5.2086723113707743e-05 0.024443014624855063 0 -3.6290257682939697e-05 0.024374791469295887 0 -0.00037253151024440153 0.023983495016482989 0 -0.00032242281006986676 0.024084977616968282 0 -0.00043842396071530268 0.02400568121870553 0 -0.00032242281006986676 0.024084977616968282 0 -0.00043842396071530268 0.02400568121870553 0 -0.00041007719136171175 0.024081563640714211 0 -0.00037253151024440153 0.023983495016482989 0 -0.00043842396071530268 0.02400568121870553 0 -0.00047358240851062849 0.023923571309461097 0 -0.00040671088433529755 0.023879984097583309 0 -0.00037253151024440153 0.023983495016482989 0 -0.00047358240851062849 0.023923571309461097 0 -0.00029015863978606413 0.023949360492459621 0 -0.00037253151024440153 0.023983495016482989 0 -0.00028347167180661965 0.024036130359921751 0 -0.00028347167180661965 0.024036130359921751 0 -0.00032242281006986676 0.024084977616968282 0 -0.00022348039006202497 0.024114546564134188 0 -0.00037253151024440153 0.023983495016482989 0 -0.00028347167180661965 0.024036130359921751 0 -0.00032242281006986676 0.024084977616968282 0 -0.00022348039006202497 0.024114546564134188 0 -0.00019696624143683355 0.024039008651212671 0 -0.00016937969573298684 0.024115445730186494 0 -0.00029015863978606413 0.023949360492459621 0 -0.00028347167180661965 0.024036130359921751 0 -0.00019696624143683355 0.024039008651212671 0 -0.00028347167180661965 0.024036130359921751 0 -0.00022348039006202497 0.024114546564134188 0 -0.00019696624143683355 0.024039008651212671 0 -0.00019696624143683355 0.024039008651212671 0 -0.00011087099596061788 0.024119014271049375 0 -0.00016937969573298684 0.024115445730186494 0 -0.00019696624143683355 0.024039008651212671 0 -0.00011365733962735493 0.024019256431062268 0 -0.00011087099596061788 0.024119014271049375 0 -6.0566202617735838e-05 0.02407386868716252 0 -0.00011365733962735493 0.024019256431062268 0 -0.00011087099596061788 0.024119014271049375 0 -0.00011087099596061788 0.024119014271049375 0 -0.00014855587255984179 0.024186085121989533 0 -0.00016937969573298684 0.024115445730186494 0 -8.2717324050665615e-05 0.024245544258940672 0 -0.00011087099596061788 0.024119014271049375 0 -0.00014855587255984179 0.024186085121989533 0 -0.00022348039006202497 0.024114546564134188 0 -0.00014855587255984179 0.024186085121989533 0 -0.00016937969573298684 0.024115445730186494 0 -0.00014855587255984179 0.024186085121989533 0 -0.00012740819007335137 0.024257748552044173 0 -0.00021717343945057953 0.024198551766101039 0 -8.2717324050665615e-05 0.024245544258940672 0 -0.00014855587255984179 0.024186085121989533 0 -0.00012740819007335137 0.024257748552044173 0 -0.00012740819007335137 0.024257748552044173 0 -0.0001684708822107094 0.024266837762981205 0 -0.00010809369738521863 0.024299846621642161 0 -0.00012740819007335137 0.024257748552044173 0 -0.0001684708822107094 0.024266837762981205 0 -0.00021717343945057953 0.024198551766101039 0 -0.0001684708822107094 0.024266837762981205 0 -0.00021717343945057953 0.024198551766101039 0 -0.00023432417617605649 0.024251566509175298 0 -0.00032242281006986676 0.024084977616968282 0 -0.00022348039006202497 0.024114546564134188 0 -0.00021717343945057953 0.024198551766101039 0 -0.00022348039006202497 0.024114546564134188 0 -0.00014855587255984179 0.024186085121989533 0 -0.00021717343945057953 0.024198551766101039 0 -0.00032242281006986676 0.024084977616968282 0 -0.00021717343945057953 0.024198551766101039 0 -0.00030795536976543382 0.024172149344134791 0 -0.00021717343945057953 0.024198551766101039 0 -0.00030795536976543382 0.024172149344134791 0 -0.00023432417617605649 0.024251566509175298 0 -0.00030795536976543382 0.024172149344134791 0 -0.00038077698817488582 0.024159855737897213 0 -0.00031010093175704348 0.024240335895739928 0 -0.00030795536976543382 0.024172149344134791 0 -0.00038077698817488582 0.024159855737897213 0 -0.00041007719136171175 0.024081563640714211 0 -0.00032242281006986676 0.024084977616968282 0