<?xml version="1.0"?>
<VTKFile type="UnstructuredGrid" version="0.1" byte_order="LittleEndian">
<UnstructuredGrid>
<Piece NumberOfPoints="31947" NumberOfCells="11176">
<Points>
<DataArray type="Float64" NumberOfComponents="3" format="ascii">
-0.5 -0.5 0 -0.47291164641495098 -0.47998228002335619 0 -0.43145591371879038 -0.5 0 -0.5 -0.5 0 -0.50000000000000433 -0.47788428187462728 0 -0.47291164641495098 -0.47998228002335619 0 -0.50000000000000433 -0.47788428187462728 0 -0.47291164641495098 -0.47998228002335619 0 -0.48585201880880391 -0.46271394907832608 0 -0.50000000000000433 -0.47788428187462728 0 -0.48585201880880391 -0.46271394907832608 0 -0.47291164641495098 -0.47998228002335619 0 -0.4691647414294921 -0.46441675892759238 0 -0.48585201880880391 -0.46271394907832608 0 -0.47291164641495098 -0.47998228002335619 0 -0.45099720453261299 -0.47487869025959373 0 -0.43145591371879038 -0.5 0 -0.47291164641495098 -0.47998228002335619 0 -0.45099720453261299 -0.47487869025959373 0 -0.4691647414294921 -0.46441675892759238 0 -0.44944164227175931 -0.44308997408865619 0 -0.44458614074969038 -0.45362674204253639 0 -0.45904879883441019 -0.45293501062497732 0 -0.44944164227175931 -0.44308997408865619 0 -0.44224392598280859 -0.44224994629392461 0 -0.44458614074969038 -0.45362674204253639 0 -0.44944164227175931 -0.44308997408865619 0 -0.45012294552657017 -0.43389347947670209 0 -0.44944164227175931 -0.44308997408865619 0 -0.44224392598280859 -0.44224994629392461 0 -0.45012294552657017 -0.43389347947670209 0 -0.44224392598280859 -0.44224994629392461 0 -0.43800636655066633 -0.43637152333098561 0 -0.43643311689447861 -0.44657975739963329 0 -0.44224392598280859 -0.44224994629392461 0 -0.45012294552657017 -0.43389347947670209 0 -0.43800636655066633 -0.43637152333098561 0 -0.44224392598280859 -0.44224994629392461 0 -0.44458614074969038 -0.45362674204253639 0 -0.43643311689447861 -0.44657975739963329 0 -0.45099720453261299 -0.47487869025959373 0 -0.44458614074969038 -0.45362674204253639 0 -0.42935215598207299 -0.46202707358843342 0 -0.45099720453261299 -0.47487869025959373 0 -0.44458614074969038 -0.45362674204253639 0 -0.45904879883441019 -0.45293501062497732 0 -0.45904879883441019 -0.45293501062497732 0 -0.47170403761760121 -0.4475436162820271 0 -0.4691647414294921 -0.46441675892759238 0 -0.45099720453261299 -0.47487869025959373 0 -0.45904879883441019 -0.45293501062497732 0 -0.4691647414294921 -0.46441675892759238 0 -0.44944164227175931 -0.44308997408865619 0 -0.45904879883441019 -0.45293501062497732 0 -0.4575560564263994 -0.43237328348572729 0 -0.45904879883441019 -0.45293501062497732 0 -0.47170403761760121 -0.4475436162820271 0 -0.4575560564263994 -0.43237328348572729 0 -0.47170403761760121 -0.4475436162820271 0 -0.4575560564263994 -0.43237328348572729 0 -0.47170403761760121 -0.4475436162820271 0 -0.48668318433556729 -0.44193098916938089 0 -0.47875519273360789 -0.42803770414879561 0 -0.47170403761760121 -0.4475436162820271 0 -0.48585201880880391 -0.46271394907832608 0 -0.48668318433556729 -0.44193098916938089 0 -0.47170403761760121 -0.4475436162820271 0 -0.4691647414294921 -0.46441675892759238 0 -0.48585201880880391 -0.46271394907832608 0 -0.47170403761760121 -0.4475436162820271 0 -0.48585201880880391 -0.46271394907832608 0 -0.50000000000000433 -0.47788428187462728 0 -0.48585201880880391 -0.46271394907832608 0 -0.5 -0.45079320334324668 0 -0.5 -0.45079320334324668 0 -0.48668318433556729 -0.44193098916938089 0 -0.49995432904081683 -0.42370212481186631 0 -0.48585201880880391 -0.46271394907832608 0 -0.5 -0.45079320334324668 0 -0.48668318433556729 -0.44193098916938089 0 -0.49995432904081683 -0.42370212481186631 0 -0.49031232461334501 -0.41958847723210829 0 -0.47875519273360789 -0.42803770414879561 0 -0.48668318433556729 -0.44193098916938089 0 -0.49995432904081683 -0.42370212481186631 0 -0.47875519273360789 -0.42803770414879561 0 -0.49995432904081683 -0.42370212481186631 0 -0.47875519273360789 -0.42803770414879561 0 -0.49031232461334501 -0.41958847723210829 0 -0.47814957490924243 -0.41402158561491431 0 -0.48533645757380739 -0.40368392297237921 0 -0.49031232461334501 -0.41958847723210829 0 -0.48533645757380739 -0.40368392297237921 0 -0.49031232461334501 -0.41958847723210829 0 -0.5 -0.40374154659835249 0 -0.48533645757380739 -0.40368392297237921 0 -0.49995432904081683 -0.42370212481186631 0 -0.49031232461334501 -0.41958847723210829 0 -0.5 -0.40374154659835249 0 -0.47814957490924243 -0.41402158561491431 0 -0.48533645757380739 -0.40368392297237921 0 -0.46906812126939468 -0.40328547935508458 0 -0.49031232461334501 -0.41958847723210829 0 -0.47814957490924243 -0.41402158561491431 0 -0.47875519273360789 -0.42803770414879561 0 -0.47875519273360789 -0.42803770414879561 0 -0.46126253921706689 -0.42204745915435937 0 -0.46727577835605699 -0.41551234436620321 0 -0.47814957490924243 -0.41402158561491431 0 -0.46906812126939468 -0.40328547935508458 0 -0.46727577835605699 -0.41551234436620321 0 -0.47814957490924243 -0.41402158561491431 0 -0.47875519273360789 -0.42803770414879561 0 -0.46727577835605699 -0.41551234436620321 0 -0.47170403761760121 -0.4475436162820271 0 -0.47875519273360789 -0.42803770414879561 0 -0.4575560564263994 -0.43237328348572729 0 -0.49999999999999789 -0.38378096838483872 0 -0.49142426202701889 -0.39474645166705657 0 -0.48036059053426933 -0.38777936871265029 0 -0.49999999999999789 -0.38378096838483872 0 -0.48036059053426933 -0.38777936871265029 0 -0.49999999999999789 -0.38378096838483872 0 -0.48036059053426933 -0.38777936871265029 0 -0.48736435168140257 -0.37133275655010689 0 -0.49999999999999789 -0.38378096838483872 0 -0.49142426202701889 -0.39474645166705657 0 -0.5 -0.40374154659835249 0 -0.49142426202701889 -0.39474645166705657 0 -0.48533645757380739 -0.40368392297237921 0 -0.48036059053426933 -0.38777936871265029 0 -0.49142426202701889 -0.39474645166705657 0 -0.5 -0.40374154659835249 0 -0.48533645757380739 -0.40368392297237921 0 -0.48533645757380739 -0.40368392297237921 0 -0.48036059053426933 -0.38777936871265029 0 -0.48533645757380739 -0.40368392297237921 0 -0.46906812126939468 -0.40328547935508458 0 -0.48036059053426933 -0.38777936871265029 0 -0.48036059053426933 -0.38777936871265029 0 -0.46681845321594467 -0.37776328035327839 0 -0.47223744594528688 -0.36181505076594062 0 -0.48036059053426933 -0.38777936871265029 0 -0.46681845321594467 -0.37776328035327839 0 -0.45312848313319598 -0.39332357142148261 0 -0.46681845321594467 -0.37776328035327839 0 -0.45312848313319598 -0.39332357142148261 0 -0.45518352746400748 -0.36558378890584831 0 -0.45312848313319598 -0.39332357142148261 0 -0.45518352746400748 -0.36558378890584831 0 -0.48036059053426933 -0.38777936871265029 0 -0.45312848313319598 -0.39332357142148261 0 -0.46906812126939468 -0.40328547935508458 0 -0.48036059053426933 -0.38777936871265029 0 -0.45312848313319598 -0.39332357142148261 0 -0.46906812126939468 -0.40328547935508458 0 -0.45312848313319598 -0.39332357142148261 0 -0.45195138390082318 -0.40921251173085083 0 -0.44436579112745322 -0.39510757366704208 0 -0.44130764633640812 -0.41495074205422311 0 -0.45312848313319598 -0.39332357142148261 0 -0.45195138390082318 -0.40921251173085083 0 -0.45312848313319598 -0.39332357142148261 0 -0.44436579112745322 -0.39510757366704208 0 -0.45195138390082318 -0.40921251173085083 0 -0.45312848313319598 -0.39332357142148261 0 -0.44436579112745322 -0.39510757366704208 0 -0.44436579112745322 -0.39510757366704208 0 -0.44687421819164608 -0.3788313199175451 0 -0.43569662450111191 -0.38128365304766082 0 -0.45312848313319598 -0.39332357142148261 0 -0.45518352746400748 -0.36558378890584831 0 -0.44868375247440512 -0.3670899224597412 0 -0.45312848313319598 -0.39332357142148261 0 -0.44687421819164608 -0.3788313199175451 0 -0.44868375247440512 -0.3670899224597412 0 -0.45312848313319598 -0.39332357142148261 0 -0.44436579112745322 -0.39510757366704208 0 -0.44687421819164608 -0.3788313199175451 0 -0.44436579112745322 -0.39510757366704208 0 -0.44687421819164608 -0.3788313199175451 0 -0.44687421819164608 -0.3788313199175451 0 -0.43569662450111191 -0.38128365304766082 0 -0.43935121753743761 -0.37636839254663379 0 -0.44687421819164608 -0.3788313199175451 0 -0.43569662450111191 -0.38128365304766082 0 -0.43935121753743761 -0.37636839254663379 0 -0.43569662450111191 -0.38128365304766082 0 -0.47875519273360789 -0.42803770414879561 0 -0.4575560564263994 -0.43237328348572729 0 -0.46126253921706689 -0.42204745915435937 0 -0.47875519273360789 -0.42803770414879561 0 -0.4575560564263994 -0.43237328348572729 0 -0.4575560564263994 -0.43237328348572729 0 -0.46126253921706689 -0.42204745915435937 0 -0.45077428466844838 -0.42510145204021887 0 -0.4575560564263994 -0.43237328348572729 0 -0.45077428466844838 -0.42510145204021887 0 -0.4575560564263994 -0.43237328348572729 0 -0.45012294552657017 -0.43389347947670209 0 -0.46126253921706689 -0.42204745915435937 0 -0.45195138390082318 -0.40921251173085083 0 -0.45077428466844838 -0.42510145204021887 0 -0.46906812126939468 -0.40328547935508458 0 -0.46727577835605699 -0.41551234436620321 0 -0.45195138390082318 -0.40921251173085083 0 -0.46126253921706689 -0.42204745915435937 0 -0.46727577835605699 -0.41551234436620321 0 -0.45195138390082318 -0.40921251173085083 0 -0.45195138390082318 -0.40921251173085083 0 -0.44130764633640812 -0.41495074205422311 0 -0.45077428466844838 -0.42510145204021887 0 -0.44436579112745322 -0.39510757366704208 0 -0.45195138390082318 -0.40921251173085083 0 -0.44130764633640812 -0.41495074205422311 0 -0.44130764633640812 -0.41495074205422311 0 -0.45077428466844838 -0.42510145204021887 0 -0.45195138390082318 -0.40921251173085083 0 -0.45077428466844838 -0.42510145204021887 0 -0.44436579112745322 -0.39510757366704208 0 -0.44130764633640812 -0.41495074205422311 0 -0.42827303486001211 -0.41305505942262499 0 -0.44130764633640812 -0.41495074205422311 0 -0.43800636655066633 -0.43637152333098561 0 -0.4361379896120311 -0.4195955178792854 0 -0.44130764633640812 -0.41495074205422311 0 -0.43800636655066633 -0.43637152333098561 0 -0.4413076
[...]
<PointData Scalars="" Vectors="displacement," Tensors="">
<DataArray type="Float64" Name="displacement" NumberOfComponents="3" format="ascii">
-1.0647136460501718e-06 -0.049995345067022648 0 -4.0435954017900393e-05 -0.049649787965475964 0 2.3309523567981797e-07 -0.050000715933979201 0 -1.0647136460501718e-06 -0.049995345067022648 0 1.4257764249647741e-06 -0.047796344503408618 0 -4.0435954017900393e-05 -0.049649787965475964 0 1.4257764249647741e-06 -0.047796344503408618 0 -4.0435954017900393e-05 -0.049649787965475964 0 0.00056810940145499752 -0.048946045205734 0 -7.6077799448384223e-08 -0.047787868667480408 0 9.6257871901640158e-05 -0.047052426206573558 0 -4.0435954017900393e-05 -0.049649787965475964 0 0.00032121285393443616 -0.049572887296255343 0 0.00056810940145499752 -0.048946045205734 0 -4.0435954017900393e-05 -0.049649787965475964 0 0.00010637868944458098 -0.049827442060171298 0 2.3309523567981797e-07 -0.050000715933979201 0 -4.0435954017900393e-05 -0.049649787965475964 0 0.00010637868944458098 -0.049827442060171298 0 0.00032121285393443616 -0.049572887296255343 0 0.00042057854606929504 -0.04975242742334058 0 0.00030644434582920973 -0.04982349107340997 0 0.00039774324336209398 -0.049671248933656077 0 0.00042057854606929504 -0.04975242742334058 0 0.00038635243153945458 -0.049824562310948541 0 0.00030644434582920973 -0.04982349107340997 0 0.00039958648323454294 -0.048930253034963948 0 2.0355041119279491e-05 -0.047985092034368099 0 0.00042057854606929504 -0.04975242742334058 0 0.00038635243153945458 -0.049824562310948541 0 0.00050533603472875102 -0.049738268922018554 0 0.00038635243153945458 -0.049824562310948541 0 0.00041802712514522655 -0.049866697596185214 0 0.0003163505516479739 -0.049874649790185938 0 0.00038635243153945458 -0.049824562310948541 0 0.00050533603472875102 -0.049738268922018554 0 0.00041802712514522655 -0.049866697596185214 0 0.00038635243153945458 -0.049824562310948541 0 0.00030644434582920973 -0.04982349107340997 0 0.0003163505516479739 -0.049874649790185938 0 0.00010637868944458098 -0.049827442060171298 0 0.00030644434582920973 -0.04982349107340997 0 0.00018130541782566283 -0.049941653422416667 0 0.00010637868944458098 -0.049827442060171298 0 0.00030644434582920973 -0.04982349107340997 0 0.00039774324336209398 -0.049671248933656077 0 0.00039774324336209398 -0.049671248933656077 0 0.00054141528684833887 -0.049502524511993357 0 0.00032121285393443616 -0.049572887296255343 0 0.00010637868944458098 -0.049827442060171298 0 0.00039774324336209398 -0.049671248933656077 0 0.00032121285393443616 -0.049572887296255343 0 0.00042057854606929504 -0.04975242742334058 0 0.00039774324336209398 -0.049671248933656077 0 0.00054058437280457767 -0.049657640605901464 0 0.00039774324336209398 -0.049671248933656077 0 0.00054141528684833887 -0.049502524511993357 0 0.00054058437280457767 -0.049657640605901464 0 0.00035037282772232433 -0.047370308115269842 0 0.00020038926174525308 -0.045313840219087867 0 -0.0001896339304775368 -0.044724369479280504 0 -0.00018839205838447871 -0.044467526115910462 0 0.00027747830300386018 -0.044568776694708531 0 -0.0001896339304775368 -0.044724369479280504 0 1.2801831067295194e-05 -0.045251297194964679 0 -0.00018839205838447871 -0.044467526115910462 0 0.00054141528684833887 -0.049502524511993357 0 0.00032121285393443616 -0.049572887296255343 0 0.00056810940145499752 -0.048946045205734 0 0.00035037282772232433 -0.047370308115269842 0 9.6257871901640158e-05 -0.047052426206573558 0 1.5641686356839681e-06 -0.047785984227159101 0 1.2801831067295194e-05 -0.045251297194964679 0 -1.566582390365697e-06 -0.045078693395377123 0 -1.566582390365697e-06 -0.045078693395377123 0 -0.00018839205838447871 -0.044467526115910462 0 1.5914177512099886e-06 -0.042373935671084169 0 1.2801831067295194e-05 -0.045251297194964679 0 -1.566582390365697e-06 -0.045078693395377123 0 -0.00018839205838447871 -0.044467526115910462 0 1.0360799766543144e-06 -0.042367257793878635 0 -9.8070438764018866e-05 -0.041563304291315238 0 0.00017488559654279225 -0.041141004168891326 0 -0.00018839205838447871 -0.044467526115910462 0 1.5914177512099886e-06 -0.042373935671084169 0 0.00027747830300386018 -0.044568776694708531 0 9.3594534575648225e-09 -0.042371014430171605 0 0.00022802452289640682 -0.042442954002436549 0 -9.8070438764018866e-05 -0.041563304291315238 0 -0.00013293578923273086 -0.041240680213256671 0 -0.00024653841958563027 -0.041344619960075789 0 -0.00020261192543256511 -0.041281321476207444 0 -0.00015113030037828339 -0.040918990414246438 0 -9.8070438764018866e-05 -0.041563304291315238 0 -1.2740130085345764e-06 -0.040374335803553492 0 -0.00022943243662600888 -0.040259521959583447 0 1.0360799766543144e-06 -0.042367257793878635 0 -9.8070438764018866e-05 -0.041563304291315238 0 -1.2740130085345764e-06 -0.040374335803553492 0 -0.00013293578923273086 -0.041240680213256671 0 -0.00024653841958563027 -0.041344619960075789 0 -0.00025929562763940696 -0.041132420987017665 0 -9.8070438764018866e-05 -0.041563304291315238 0 -0.00013293578923273086 -0.041240680213256671 0 0.00017488559654279225 -0.041141004168891326 0 0.00017488559654279225 -0.041141004168891326 0 -2.2463610200176482e-06 -0.041022826117272836 0 -9.1428158516649466e-05 -0.04108831715262929 0 -0.00013293578923273086 -0.041240680213256671 0 -0.00025929562763940696 -0.041132420987017665 0 -9.1428158516649466e-05 -0.04108831715262929 0 -0.00013293578923273086 -0.041240680213256671 0 0.00017488559654279225 -0.041141004168891326 0 -9.1428158516649466e-05 -0.04108831715262929 0 -0.0001896339304775368 -0.044724369479280504 0 0.00027747830300386018 -0.044568776694708531 0 0.00017314988231218676 -0.04506995226348471 0 1.3570770808616989e-06 -0.038380768389386859 0 -0.00012195406715076624 -0.039753379124929974 0 0.00021979551050433654 -0.040345200593344836 0 5.3254433016459572e-07 -0.038377279075079006 0 -0.00018676236702278782 -0.038820266914475376 0 2.4872085881683943e-06 -0.03837410209316848 0 0.00091332539860133422 -0.035962085873327922 0 -0.0001060521093421655 -0.036271820904381379 0 1.3570770808616989e-06 -0.038380768389386859 0 -0.00012195406715076624 -0.039753379124929974 0 -1.2740130085345764e-06 -0.040374335803553492 0 -0.00012195406715076624 -0.039753379124929974 0 -0.00022943243662600888 -0.040259521959583447 0 0.00021979551050433654 -0.040345200593344836 0 -0.00012195406715076624 -0.039753379124929974 0 -1.2740130085345764e-06 -0.040374335803553492 0 -0.00022943243662600888 -0.040259521959583447 0 -0.00015113030037828339 -0.040918990414246438 0 -0.00018676236702278782 -0.038820266914475376 0 -0.00024653841958563027 -0.041344619960075789 0 -0.00025929562763940696 -0.041132420987017665 0 -0.00039201032300840023 -0.041270316430584493 0 -0.00077417655726233416 -0.038495784318944917 0 -0.00045935113027965668 -0.038922067172519954 0 4.275078184324145e-05 -0.038736934466420243 0 -0.00077417655726233416 -0.038495784318944917 0 -0.00045935113027965668 -0.038922067172519954 0 -0.00095347700285126587 -0.039375076591794393 0 -0.00045935113027965668 -0.038922067172519954 0 -0.00095347700285126587 -0.039375076591794393 0 -7.4674350470550554e-05 -0.039283812316079351 0 -0.00048895458219168808 -0.041579136952830095 0 1.5010067723601589e-05 -0.040378729510485427 0 -0.00018676236702278782 -0.038820266914475376 0 -0.00048895458219168808 -0.041579136952830095 0 -0.00025929562763940696 -0.041132420987017665 0 -0.00039201032300840023 -0.041270316430584493 0 -0.00041182916447520841 -0.040942132966143047 0 -0.00025929562763940696 -0.041132420987017665 0 -0.00041182916447520841 -0.040942132966143047 0 -0.00020424528270114671 -0.040919060716001904 0 -0.00033256044855294763 -0.04603955655212659 0 0.00037245410251667373 -0.047752368298574689 0 -0.00048895458219168808 -0.041579136952830095 0 4.0912430332449929e-05 -0.04306449635041306 0 -9.2338803160291132e-05 -0.045171751697262168 0 -0.00010246431174985832 -0.04507951072768572 0 0.0001050123220635899 -0.045176514419035474 0 -0.00048895458219168808 -0.041579136952830095 0 -0.00033256044855294763 -0.04603955655212659 0 -0.0012335998441217854 -0.045739281825239446 0 0.00084931805531962242 -0.045408934698827202 0 0.00053380247213792272 -0.04684919232959768 0 -0.0010856915848187524 -0.041552974766955741 0 0.00037391947812516675 -0.041376572811785167 0 0.00029174591869500266 -0.04173724279198391 0 -0.0010856915848187524 -0.041552974766955741 0 -0.00032597851810572552 -0.04186001599561473 0 0.00029174591869500266 -0.04173724279198391 0 -0.0010856915848187524 -0.041552974766955741 0 -0.0011776591195853375 -0.042025103137483977 0 -0.00032597851810572552 -0.04186001599561473 0 -0.00033256044855294763 -0.04603955655212659 0 0.00020135134212276415 -0.043700468128123747 0 0.00020135134212276415 -0.043700468128123747 0 -3.0064852832378738e-05 -0.045932888368725923 0 -9.9624166469460416e-05 -0.0434467023270158 0 -0.00027081238079049115 -0.042906738613429987 0 -0.00045262195077482725 -0.04371654143651349 0 0.0003767129202041122 -0.044869818987077335 0 -3.0064852832378738e-05 -0.045932888368725923 0 0.00017488559654279225 -0.041141004168891326 0 9.14405219992045e-05 -0.0410033431036309 0 -2.2463610200176482e-06 -0.041022826117272836 0 0.00022802452289640682 -0.042442954002436549 0 0.00020038926174525308 -0.045313840219087867 0 9.14405219992045e-05 -0.0410033431036309 0 -2.2463610200176482e-06 -0.041022826117272836 0 1.4394121464344331e-05 -0.040922764078440622 0 0.00020038926174525308 -0.045313840219087867 0 -9.6423873321959273e-05 -0.045322777060512319 0 0.00020038926174525308 -0.045313840219087867 0 2.0355041119279491e-05 -0.047985092034368099 0 -2.2463610200176482e-06 -0.041022826117272836 0 -0.00020424528270114671 -0.040919060716001904 0 1.4394121464344331e-05 -0.040922764078440622 0 -0.00025929562763940696 -0.041132420987017665 0 -9.1428158516649466e-05 -0.04108831715262929 0 -0.00020424528270114671 -0.040919060716001904 0 -2.2463610200176482e-06 -0.041022826117272836 0 -9.1428158516649466e-05 -0.04108831715262929 0 -0.00020424528270114671 -0.040919060716001904 0 0.0001050123220635899 -0.045176514419035474 0 0.00016042849446440982 -0.045045774197745019 0 0.00033512334231177322 -0.045169137770824729 0 -0.00010246431174985832 -0.04507951072768572 0 0.0001050123220635899 -0.045176514419035474 0 0.00016042849446440982 -0.045045774197745019 0 0.00037245410251667373 -0.047752368298574689 0 -9.6423873321959273e-05 -0.045322777060512319 0 4.0912430332449929e-05 -0.04306449635041306 0 -9.6423873321959273e-05 -0.045322777060512319 0 0.00090897515457699348 -0.049542392712336486 0 0.0005442372113438807 -0.049636143675850668 0 0.00054212232692822258 -0.049858534255008698 0 0.0005442372113438807 -0.049636143675850668 0 0.00025838322080638917 -0.049749728939432393 0 0.00047368639994531679 -0.049734904887397527 0 0.00037245410251667373 -0.047752368298574689 0 0.00010463653964457399 -0.049374166032183954 0 0.00042645951763477653 -0.047955763824681301 0 0.00015602556636508334 -0.047702304185955613 0 -0.00014431961175296346 -0.048052893689362018 0 -9.6423873321959273e-05 -0.045322777060512319 0 2.0355041119279491e-05 -0.047985092034368099 0 0.00015602556636508334 -0.047702304185955613 0 -7.7872278295984865e-05 -0.047723349804143195 0 -0.00014431961175296346 -0.048052893689362018 0 0.00042057854606929504 -0.04975242742334058 0 0.00054058437280457767 -0.049657640605901464 0 0.0005048721135178535 -0.049732006899741048 0 -2.1643262828373505e-05 -0.04629544359863131 0 -0.00015387356663659982 -0.046175025583794709 0 3.5999910838963919e-06 -0.046167227021790602 0 2.0355041119279491e-05 -0.047985092034368099 0 0.00010463653964457399 -0.049374166032183954 0 0.00025838322080638917 -0.049749728939432393 0 0.00037352206099906576 -0.049860204160040382 0 0.00028315546490596642 -0.049944362670050452 0 0.00025838322080638917 -0.049749728939432393 0 0.00037352206099906576 -0.049860204160040382 0 0.00047368639994531679 -0.049734904887397527 0 0.00037352206099906576 -0.049860204160040382 0 0.00034383696489640727 -0.049977167484103559 0 0.00028315546490596642 -0.049944362670050452 0 0.00037352206099906576 -0.049860204160040382 0 0.00054212232692822258 -0.049858534255008698 0 0.00034383696489640727 -0.049977167484103559 0 0.0005442372113438807 -0.049636143675850668 0 0.00047368639994531679 -0.049734904887397527 0 0.00054212232692822258 -0.049858534255008698 0 0.00037352206099906576 -0.049860204160040382 0 0.00047368639994531679 -0.049734904887397527 0 0.00054212232692822258 -0.049858534255008698 0 -0.00034863146196322361 -0.049094802423472396 0 -0.00016546266237853013 -0.04883973644059595 0 -0.00023268756430319326 -0.049114942631427086 0 0.00054212232692822258 -0.049858534255008698 0 0.0003814386459884717 -0.050111545449529844 0 0.00034383696489640727 -0.049977167484103559 0 0.00016417991700473343 -0.049565069473316861 0 -0.00047385718436714969 -0.049287841411129872 0 -0.00034863146196322361 -0.049094802423472396 0 -0.00015838103730841938 -0.048792636831660317 0 -0.00016546266237853013 -0.04883973644059595 0 0.00054212232692822258 -0.049858534255008698 0 0.0003814386459884717 -0.050111545449529844 0 0.00073692736687776706 -0.049961951363050962 0 0.00034383696489640727 -0.049977167484103559 0 0.00028315546490596642 -0.049944362670050452 0 0.00022007094967538138 -0.050021296072935588 0 0.0003814386459884717 -0.050111545449529844 0 0.00034383696489640727 -0.049977167484103559 0 0.00022007094967538138 -0.050021296072935588 0 -0.00044852197968368271 -0.043718860296486646 0 -0.00076058234288760133 -0.045342931111644127 0 -4.242850275300788e-05 -0.044748418401949513 0 -3.0064852832378738e-05 -0.045932888368725923 0 -0.00047385718436714969 -0.049287841411129872 0 0.00019806201356583139 -0.048455739449983271 0 -3.3103318824864849e-05 -0.048821792271304454 0 5.9603918904853757e-05 -0.048943153756907623 0 -3.0064852832378738e-05 -0.045932888368725923 0 -0.00036424173475078041 -0.047163525203058769 0 -0.00044852197968368271 -0.043718860296486646 0 -4.242850275300788e-05 -0.044748418401949513 0 0.00012018291360040715 -0.044075986165667456 0 -9.9624166469460416e-05 -0.0434467023270158 0 -0.00044852197968368271 -0.043718860296486646 0 0.00012018291360040715 -0.044075986165667456 0 0.00019806201356583139 -0.048455739449983271 0 -0.00016667632649663519 -0.048777600704814614 0 -3.3103318824864849e-05 -0.048821792271304454 0 -0.0012335998441217854 -0.045739281825239446 0 0.00053380247213792272 -0.04684919232959768 0 -0.0018175588430309176 -0.048615342679395504 0 0.00090897515457699348 -0.049542392712336486 0 0.00054212232692822258 -0.049858534255008698 0 0.00073692736687776706 -0.049961951363050962 0 -0.00033256044855294763 -0.04603955655212659 0 -0.00047385718436714969 -0.049287841411129872 0 -0.00016546266237853013 -0.04883973644059595 0 -0.00011459706515909797 -0.048997807366699231 0 -0.00023268756430319326 -0.049114942631427086 0 -0.00047385718436714969 -0.049287841411129872 0 -0.00043184527645722493 -0.049159104955480017 0 -0.00011459706515909797 -0.048997807366699231 0 -3.3103318824864849e-05 -0.048821792271304454 0 5.9603918904853757e-05 -0.048943153756907623 0 -0.00016667632649663519 -0.048777600704814614 0 -0.00016546266237853013 -0.04883973644059595 0 -3.3103318824864849e-05 -0.048821792271304454 0 -0.00016546266237853013 -0.04883973644059595 0 -0.00011459706515909797 -0.048997807366699231 0 -3.3103318824864849e-05 -0.048821792271304454 0 -0.00076058234288760133 -0.045342931111644127 0 -4.242850275300788e-05 -0.044748418401949513 0 0.00016162968125726712 -0.045968021687843572 0 -0.00099226636069760362 -0.046886902129408221 0 -0.00013994792049588936 -0.047566547246520902 0 0.00016162968125726712 -0.045968021687843572 0 -0.00036424173475078041 -0.047163525203058769 0 -0.00056941299595480381 -0.048044877162445106 0 -0.00076058234288760133 -0.045342931111644127 0 -0.00099226636069760362 -0.046886902129408221 0 0.00016162968125726712 -0.045968021687843572 0 -0.00011459706515909797 -0.048997807366699231 0 5.9603918904853757e-05 -0.048943153756907623 0 -0.00016606775793763558 -0.049254802957240093 0 -0.00011459706515909797 -0.048997807366699231 0 -0.00023268756430319326 -0.049114942631427086 0 -0.00016606775793763558 -0.049254802957240093 0 -0.00023268756430319326 -0.049114942631427086 0 -0.00016606775793763558 -0.049254802957240093 0 -0.00035766379359911484 -0.049305370219820718 0 -0.00056941299595480381 -0.048044877162445106 0 -0.00072058020271950336 -0.048796933155519591 0 -0.00016606775793763558 -0.049254802957240093 0 -0.00035766379359911484 -0.049305370219820718 0 -0.00039723378554109575 -0.049403224231357332 0 -0.00099226636069760362 -0.046886902129408221 0 -0.00013994792049588936 -0.047566547246520902 0 -0.0010763481644030129 -0.048269373450757137 0 0.0003814386459884717 -0.050111545449529844 0 0.00020948108089510878 -0.050112357629593554 0 0.00022007094967538138 -0.050021296072935588 0 -0.00034863146196322361 -0.049094802423472396 0 -0.00035766379359911484 -0.049305370219820718 0 -0.00039003471755971985 -0.04934087060478571 0 0.00016417991700473343 -0.049565069473316861 0 -0.00010266598065959383 -0.049728120261044041 0 -0.00034863146196322361 -0.049094802423472396 0 -0.00023268756430319326 -0.049114942631427086 0 -0.00035766379359911484 -0.049305370219820718 0 -0.00035766379359911484 -0.049305370219820718 0 -0.00038548056693963917 -0.049375533252223838 0 -0.00043337660755176174 -0.049395105653255951 0 -0.00038548056693963917 -0.049375533252223838 0 -0.00039003471755971985 -0.04934087060478571 0 -0.00036431723401982334 -0.04942797748664321 0 -0.00035766379359911484 -0.049305370219820718 0 -0.00038548056693963917 -0.049375533252223838 0 -0.00039003471755971985 -0.04934087060478571 0 -0.00039003471755971985 -0.04934087060478571 0 -0.00032633713091605751 -0.049461622946955663 0 -0.00036431723401982334 -0.04942797748664321 0 -0.00039003471755971985 -0.04934087060478571 0 -0.00030340745830588966 -0.049487043603477804 0 -0.00032633713091605751 -0.049461622946955663 0 0.00020948108089510878 -0.050112357629593554 0 0.00013809917366790515 -0.050059923814371514 0 0.00010646689581424325 -0.050073138357831018 0 -0.00010266598065959383 -0.049728120261044041 0 -8.1151892460350802e-05 -0.049771892589968718 0 0.00020948108089510878 -0.050112357629593554 0 0.00013809917366790515 -0.050059923814371514 0 0.00022007094967538138 -0.050021296072935588 0 0.00013809917366790515 -0.050059923814371514 0 6.0710659331691932e-05 -0.050029596880903367 0 0.00011728261082821959 -0.050016570434557227 0 0.00013809917366790515 -0.050059923814371514 0 0.00022007094967538138 -0.050021296072935588 0 0.00011728261082821959 -0.050016570434557227 0 0.00013809917366790515 -0.050059923814371514 0 0.00010646689581424325 -0.050073138357831018 0 6.0710659331691932e-05 -0.050029596880903367 0 6.0710659331691932e-05 -0.050029596880903367 0 1.3658554340966977e-08 -0.049999886700005818 0 2.3309523567981797e-07 -0.050000715933979201 0 0.00010646689581424325 -0.050073138357831018 0 6.0710659331691932e-05 -0.050029596880903367 0 3.8441184554578793e-05 -0.050035636988577818 0 6.0710659331691932e-05 -0.050029596880903367 0 1.3658554340966977e-08 -0.049999886700005818 0 3.8441184554578793e-05 -0.050035636988577818 0 2.3309523567981797e-07 -0.050000715933979201 0 0.00018130541782566283 -0.049941653422416667 0 0.00011728261082821959 -0.050016570434557227 0 6.0710659331691932e-05 -0.050029596880903367 0 2.3309523567981797e-07 -0.050000715933979201 0 0.00011728261082821959 -0.050016570434557227 0 0.00010637868944458098 -0.049827442060171298 0 2.3309523567981797e-07 -0.050000715933979201 0 0.00018130541782566283 -0.049941653422416667 0 0.00030644434582920973 -0.04982349107340997 0 0.00018130541782566283 -0.049941653422416667 0 0.0003163505516479739 -0.049874649790185938 0 0.00018130541782566283 -0.049941653422416667 0 0.0003163505516479739 -0.049874649790185938 0 0.00028315546490596642 -0.049944362670050452 0 0.00041511331714803081 -0.049847791179565955 0 0.0003163505516479739 -0.049874649790185938 0 0.00028315546490596642 -0.049944362670050452 0 0.000104636539644573