<?xml version="1.0"?>
<VTKFile type="UnstructuredGrid" version="0.1" byte_order="LittleEndian">
<UnstructuredGrid>
<Piece NumberOfPoints="31947" NumberOfCells="11176">
<Points>
<DataArray type="Float64" NumberOfComponents="3" format="ascii">
-0.5 -0.5 0 -0.47291164641495098 -0.47998228002335619 0 -0.43145591371879038 -0.5 0 -0.5 -0.5 0 -0.50000000000000433 -0.47788428187462728 0 -0.47291164641495098 -0.47998228002335619 0 -0.50000000000000433 -0.47788428187462728 0 -0.47291164641495098 -0.47998228002335619 0 -0.48585201880880391 -0.46271394907832608 0 -0.50000000000000433 -0.47788428187462728 0 -0.48585201880880391 -0.46271394907832608 0 -0.47291164641495098 -0.47998228002335619 0 -0.4691647414294921 -0.46441675892759238 0 -0.48585201880880391 -0.46271394907832608 0 -0.47291164641495098 -0.47998228002335619 0 -0.45099720453261299 -0.47487869025959373 0 -0.43145591371879038 -0.5 0 -0.47291164641495098 -0.47998228002335619 0 -0.45099720453261299 -0.47487869025959373 0 -0.4691647414294921 -0.46441675892759238 0 -0.44944164227175931 -0.44308997408865619 0 -0.44458614074969038 -0.45362674204253639 0 -0.45904879883441019 -0.45293501062497732 0 -0.44944164227175931 -0.44308997408865619 0 -0.44224392598280859 -0.44224994629392461 0 -0.44458614074969038 -0.45362674204253639 0 -0.44944164227175931 -0.44308997408865619 0 -0.45012294552657017 -0.43389347947670209 0 -0.44944164227175931 -0.44308997408865619 0 -0.44224392598280859 -0.44224994629392461 0 -0.45012294552657017 -0.43389347947670209 0 -0.44224392598280859 -0.44224994629392461 0 -0.43800636655066633 -0.43637152333098561 0 -0.43643311689447861 -0.44657975739963329 0 -0.44224392598280859 -0.44224994629392461 0 -0.45012294552657017 -0.43389347947670209 0 -0.43800636655066633 -0.43637152333098561 0 -0.44224392598280859 -0.44224994629392461 0 -0.44458614074969038 -0.45362674204253639 0 -0.43643311689447861 -0.44657975739963329 0 -0.45099720453261299 -0.47487869025959373 0 -0.44458614074969038 -0.45362674204253639 0 -0.42935215598207299 -0.46202707358843342 0 -0.45099720453261299 -0.47487869025959373 0 -0.44458614074969038 -0.45362674204253639 0 -0.45904879883441019 -0.45293501062497732 0 -0.45904879883441019 -0.45293501062497732 0 -0.47170403761760121 -0.4475436162820271 0 -0.4691647414294921 -0.46441675892759238 0 -0.45099720453261299 -0.47487869025959373 0 -0.45904879883441019 -0.45293501062497732 0 -0.4691647414294921 -0.46441675892759238 0 -0.44944164227175931 -0.44308997408865619 0 -0.45904879883441019 -0.45293501062497732 0 -0.4575560564263994 -0.43237328348572729 0 -0.45904879883441019 -0.45293501062497732 0 -0.47170403761760121 -0.4475436162820271 0 -0.4575560564263994 -0.43237328348572729 0 -0.47170403761760121 -0.4475436162820271 0 -0.4575560564263994 -0.43237328348572729 0 -0.47170403761760121 -0.4475436162820271 0 -0.48668318433556729 -0.44193098916938089 0 -0.47875519273360789 -0.42803770414879561 0 -0.47170403761760121 -0.4475436162820271 0 -0.48585201880880391 -0.46271394907832608 0 -0.48668318433556729 -0.44193098916938089 0 -0.47170403761760121 -0.4475436162820271 0 -0.4691647414294921 -0.46441675892759238 0 -0.48585201880880391 -0.46271394907832608 0 -0.47170403761760121 -0.4475436162820271 0 -0.48585201880880391 -0.46271394907832608 0 -0.50000000000000433 -0.47788428187462728 0 -0.48585201880880391 -0.46271394907832608 0 -0.5 -0.45079320334324668 0 -0.5 -0.45079320334324668 0 -0.48668318433556729 -0.44193098916938089 0 -0.49995432904081683 -0.42370212481186631 0 -0.48585201880880391 -0.46271394907832608 0 -0.5 -0.45079320334324668 0 -0.48668318433556729 -0.44193098916938089 0 -0.49995432904081683 -0.42370212481186631 0 -0.49031232461334501 -0.41958847723210829 0 -0.47875519273360789 -0.42803770414879561 0 -0.48668318433556729 -0.44193098916938089 0 -0.49995432904081683 -0.42370212481186631 0 -0.47875519273360789 -0.42803770414879561 0 -0.49995432904081683 -0.42370212481186631 0 -0.47875519273360789 -0.42803770414879561 0 -0.49031232461334501 -0.41958847723210829 0 -0.47814957490924243 -0.41402158561491431 0 -0.48533645757380739 -0.40368392297237921 0 -0.49031232461334501 -0.41958847723210829 0 -0.48533645757380739 -0.40368392297237921 0 -0.49031232461334501 -0.41958847723210829 0 -0.5 -0.40374154659835249 0 -0.48533645757380739 -0.40368392297237921 0 -0.49995432904081683 -0.42370212481186631 0 -0.49031232461334501 -0.41958847723210829 0 -0.5 -0.40374154659835249 0 -0.47814957490924243 -0.41402158561491431 0 -0.48533645757380739 -0.40368392297237921 0 -0.46906812126939468 -0.40328547935508458 0 -0.49031232461334501 -0.41958847723210829 0 -0.47814957490924243 -0.41402158561491431 0 -0.47875519273360789 -0.42803770414879561 0 -0.47875519273360789 -0.42803770414879561 0 -0.46126253921706689 -0.42204745915435937 0 -0.46727577835605699 -0.41551234436620321 0 -0.47814957490924243 -0.41402158561491431 0 -0.46906812126939468 -0.40328547935508458 0 -0.46727577835605699 -0.41551234436620321 0 -0.47814957490924243 -0.41402158561491431 0 -0.47875519273360789 -0.42803770414879561 0 -0.46727577835605699 -0.41551234436620321 0 -0.47170403761760121 -0.4475436162820271 0 -0.47875519273360789 -0.42803770414879561 0 -0.4575560564263994 -0.43237328348572729 0 -0.49999999999999789 -0.38378096838483872 0 -0.49142426202701889 -0.39474645166705657 0 -0.48036059053426933 -0.38777936871265029 0 -0.49999999999999789 -0.38378096838483872 0 -0.48036059053426933 -0.38777936871265029 0 -0.49999999999999789 -0.38378096838483872 0 -0.48036059053426933 -0.38777936871265029 0 -0.48736435168140257 -0.37133275655010689 0 -0.49999999999999789 -0.38378096838483872 0 -0.49142426202701889 -0.39474645166705657 0 -0.5 -0.40374154659835249 0 -0.49142426202701889 -0.39474645166705657 0 -0.48533645757380739 -0.40368392297237921 0 -0.48036059053426933 -0.38777936871265029 0 -0.49142426202701889 -0.39474645166705657 0 -0.5 -0.40374154659835249 0 -0.48533645757380739 -0.40368392297237921 0 -0.48533645757380739 -0.40368392297237921 0 -0.48036059053426933 -0.38777936871265029 0 -0.48533645757380739 -0.40368392297237921 0 -0.46906812126939468 -0.40328547935508458 0 -0.48036059053426933 -0.38777936871265029 0 -0.48036059053426933 -0.38777936871265029 0 -0.46681845321594467 -0.37776328035327839 0 -0.47223744594528688 -0.36181505076594062 0 -0.48036059053426933 -0.38777936871265029 0 -0.46681845321594467 -0.37776328035327839 0 -0.45312848313319598 -0.39332357142148261 0 -0.46681845321594467 -0.37776328035327839 0 -0.45312848313319598 -0.39332357142148261 0 -0.45518352746400748 -0.36558378890584831 0 -0.45312848313319598 -0.39332357142148261 0 -0.45518352746400748 -0.36558378890584831 0 -0.48036059053426933 -0.38777936871265029 0 -0.45312848313319598 -0.39332357142148261 0 -0.46906812126939468 -0.40328547935508458 0 -0.48036059053426933 -0.38777936871265029 0 -0.45312848313319598 -0.39332357142148261 0 -0.46906812126939468 -0.40328547935508458 0 -0.45312848313319598 -0.39332357142148261 0 -0.45195138390082318 -0.40921251173085083 0 -0.44436579112745322 -0.39510757366704208 0 -0.44130764633640812 -0.41495074205422311 0 -0.45312848313319598 -0.39332357142148261 0 -0.45195138390082318 -0.40921251173085083 0 -0.45312848313319598 -0.39332357142148261 0 -0.44436579112745322 -0.39510757366704208 0 -0.45195138390082318 -0.40921251173085083 0 -0.45312848313319598 -0.39332357142148261 0 -0.44436579112745322 -0.39510757366704208 0 -0.44436579112745322 -0.39510757366704208 0 -0.44687421819164608 -0.3788313199175451 0 -0.43569662450111191 -0.38128365304766082 0 -0.45312848313319598 -0.39332357142148261 0 -0.45518352746400748 -0.36558378890584831 0 -0.44868375247440512 -0.3670899224597412 0 -0.45312848313319598 -0.39332357142148261 0 -0.44687421819164608 -0.3788313199175451 0 -0.44868375247440512 -0.3670899224597412 0 -0.45312848313319598 -0.39332357142148261 0 -0.44436579112745322 -0.39510757366704208 0 -0.44687421819164608 -0.3788313199175451 0 -0.44436579112745322 -0.39510757366704208 0 -0.44687421819164608 -0.3788313199175451 0 -0.44687421819164608 -0.3788313199175451 0 -0.43569662450111191 -0.38128365304766082 0 -0.43935121753743761 -0.37636839254663379 0 -0.44687421819164608 -0.3788313199175451 0 -0.43569662450111191 -0.38128365304766082 0 -0.43935121753743761 -0.37636839254663379 0 -0.43569662450111191 -0.38128365304766082 0 -0.47875519273360789 -0.42803770414879561 0 -0.4575560564263994 -0.43237328348572729 0 -0.46126253921706689 -0.42204745915435937 0 -0.47875519273360789 -0.42803770414879561 0 -0.4575560564263994 -0.43237328348572729 0 -0.4575560564263994 -0.43237328348572729 0 -0.46126253921706689 -0.42204745915435937 0 -0.45077428466844838 -0.42510145204021887 0 -0.4575560564263994 -0.43237328348572729 0 -0.45077428466844838 -0.42510145204021887 0 -0.4575560564263994 -0.43237328348572729 0 -0.45012294552657017 -0.43389347947670209 0 -0.46126253921706689 -0.42204745915435937 0 -0.45195138390082318 -0.40921251173085083 0 -0.45077428466844838 -0.42510145204021887 0 -0.46906812126939468 -0.40328547935508458 0 -0.46727577835605699 -0.41551234436620321 0 -0.45195138390082318 -0.40921251173085083 0 -0.46126253921706689 -0.42204745915435937 0 -0.46727577835605699 -0.41551234436620321 0 -0.45195138390082318 -0.40921251173085083 0 -0.45195138390082318 -0.40921251173085083 0 -0.44130764633640812 -0.41495074205422311 0 -0.45077428466844838 -0.42510145204021887 0 -0.44436579112745322 -0.39510757366704208 0 -0.45195138390082318 -0.40921251173085083 0 -0.44130764633640812 -0.41495074205422311 0 -0.44130764633640812 -0.41495074205422311 0 -0.45077428466844838 -0.42510145204021887 0 -0.45195138390082318 -0.40921251173085083 0 -0.45077428466844838 -0.42510145204021887 0 -0.44436579112745322 -0.39510757366704208 0 -0.44130764633640812 -0.41495074205422311 0 -0.42827303486001211 -0.41305505942262499 0 -0.44130764633640812 -0.41495074205422311 0 -0.43800636655066633 -0.43637152333098561 0 -0.4361379896120311 -0.4195955178792854 0 -0.44130764633640812 -0.41495074205422311 0 -0.43800636655066633 -0.43637152333098561 0 -0.4413076
[...]
<PointData Scalars="" Vectors="displacement," Tensors="">
<DataArray type="Float64" Name="displacement" NumberOfComponents="3" format="ascii">
-0.049996147829644767 -0.049999462610996269 0 -0.049164231397050451 -0.048379751083464026 0 -0.049996350356796178 -0.04314946877652661 0 -0.049996147829644767 -0.049999462610996269 0 -0.047792478541048102 -0.050000280334887397 0 -0.049164231397050451 -0.048379751083464026 0 -0.047792478541048102 -0.050000280334887397 0 -0.049164231397050451 -0.048379751083464026 0 -0.04782896271509017 -0.050122736151767537 0 -0.047788463431214498 -0.04999957459738872 0 -0.047421465564217877 -0.049657511145816277 0 -0.049164231397050451 -0.048379751083464026 0 -0.048810566149854337 -0.048823849027218834 0 -0.04782896271509017 -0.050122736151767537 0 -0.049164231397050451 -0.048379751083464026 0 -0.04950254128136905 -0.046283647829343286 0 -0.049996350356796178 -0.04314946877652661 0 -0.049164231397050451 -0.048379751083464026 0 -0.04950254128136905 -0.046283647829343286 0 -0.048810566149854337 -0.048823849027218834 0 -0.05037223063421329 -0.047509699879277632 0 -0.049881454453653884 -0.046230412643698926 0 -0.049304814202737739 -0.048330245161995002 0 -0.05037223063421329 -0.047509699879277632 0 -0.050747141443323568 -0.046307355948051784 0 -0.049881454453653884 -0.046230412643698926 0 -0.050591289683681678 -0.048399425395280679 0 -0.047317770923477824 -0.049010305120847392 0 -0.05037223063421329 -0.047509699879277632 0 -0.050747141443323568 -0.046307355948051784 0 -0.051171584201124512 -0.047621727605193967 0 -0.050747141443323568 -0.046307355948051784 0 -0.051431598743455424 -0.045967056093132543 0 -0.050463654140260279 -0.044987270024500772 0 -0.050747141443323568 -0.046307355948051784 0 -0.051171584201124512 -0.047621727605193967 0 -0.051431598743455424 -0.045967056093132543 0 -0.050747141443323568 -0.046307355948051784 0 -0.049881454453653884 -0.046230412643698926 0 -0.050463654140260279 -0.044987270024500772 0 -0.04950254128136905 -0.046283647829343286 0 -0.049881454453653884 -0.046230412643698926 0 -0.050198384053821946 -0.043963154250098016 0 -0.04950254128136905 -0.046283647829343286 0 -0.049881454453653884 -0.046230412643698926 0 -0.049304814202737739 -0.048330245161995002 0 -0.049304814202737739 -0.048330245161995002 0 -0.048674803868470527 -0.050116484509910533 0 -0.048810566149854337 -0.048823849027218834 0 -0.04950254128136905 -0.046283647829343286 0 -0.049304814202737739 -0.048330245161995002 0 -0.048810566149854337 -0.048823849027218834 0 -0.05037223063421329 -0.047509699879277632 0 -0.049304814202737739 -0.048330245161995002 0 -0.050580630831816756 -0.049596292083806622 0 -0.049304814202737739 -0.048330245161995002 0 -0.048674803868470527 -0.050116484509910533 0 -0.050580630831816756 -0.049596292083806622 0 -0.048406877302874234 -0.048986785070258124 0 -0.046531395820284482 -0.048972887051777207 0 -0.047019619548125967 -0.048341688982322745 0 -0.045709748395247302 -0.049710981971804187 0 -0.04630612787354129 -0.049747695391203238 0 -0.047019619548125967 -0.048341688982322745 0 -0.046893030245279105 -0.049119214772461679 0 -0.045709748395247302 -0.049710981971804187 0 -0.048674803868470527 -0.050116484509910533 0 -0.048810566149854337 -0.048823849027218834 0 -0.04782896271509017 -0.050122736151767537 0 -0.048406877302874234 -0.048986785070258124 0 -0.047421465564217877 -0.049657511145816277 0 -0.047789217708999701 -0.049996762310525904 0 -0.046893030245279105 -0.049119214772461679 0 -0.045081251516212985 -0.04999856564726779 0 -0.045081251516212985 -0.04999856564726779 0 -0.045709748395247302 -0.049710981971804187 0 -0.042375985863057637 -0.04999455320089613 0 -0.046893030245279105 -0.049119214772461679 0 -0.045081251516212985 -0.04999856564726779 0 -0.045709748395247302 -0.049710981971804187 0 -0.042368626888196814 -0.049995095976372743 0 -0.042071847750299873 -0.050177937925708099 0 -0.042227733363574861 -0.049976665545130687 0 -0.045709748395247302 -0.049710981971804187 0 -0.042375985863057637 -0.04999455320089613 0 -0.04630612787354129 -0.049747695391203238 0 -0.042370980798463367 -0.049994779642400976 0 -0.044147849171859967 -0.04949264967225319 0 -0.042071847750299873 -0.050177937925708099 0 -0.041986782531043466 -0.05032804947961058 0 -0.040981597574306111 -0.050301116142352331 0 -0.041862337412057374 -0.050234962373490136 0 -0.041206412090067875 -0.050469185959088836 0 -0.042071847750299873 -0.050177937925708099 0 -0.040375785965199383 -0.049999429693254167 0 -0.041089858363406104 -0.050647284903381218 0 -0.042368626888196814 -0.049995095976372743 0 -0.042071847750299873 -0.050177937925708099 0 -0.040375785965199383 -0.049999429693254167 0 -0.041986782531043466 -0.05032804947961058 0 -0.040981597574306111 -0.050301116142352331 0 -0.041749831327209198 -0.05073687650792913 0 -0.042071847750299873 -0.050177937925708099 0 -0.041986782531043466 -0.05032804947961058 0 -0.042227733363574861 -0.049976665545130687 0 -0.042227733363574861 -0.049976665545130687 0 -0.042760156536378442 -0.050042025280958392 0 -0.042385403234568082 -0.05031045883094841 0 -0.041986782531043466 -0.05032804947961058 0 -0.041749831327209198 -0.05073687650792913 0 -0.042385403234568082 -0.05031045883094841 0 -0.041986782531043466 -0.05032804947961058 0 -0.042227733363574861 -0.049976665545130687 0 -0.042385403234568082 -0.05031045883094841 0 -0.047019619548125967 -0.048341688982322745 0 -0.04630612787354129 -0.049747695391203238 0 -0.048798921697990529 -0.047685885746751158 0 -0.038379676997068533 -0.050000010215423919 0 -0.040059608754612105 -0.050465182992295271 0 -0.040310740244221634 -0.051065157527469721 0 -0.038378635417073911 -0.049999851481812803 0 -0.039544323427781768 -0.051299089281718994 0 -0.038378145459425986 -0.049999398899023405 0 -0.039089037061424692 -0.051314797336605975 0 -0.037462902351807603 -0.050918665061944625 0 -0.038379676997068533 -0.050000010215423919 0 -0.040059608754612105 -0.050465182992295271 0 -0.040375785965199383 -0.049999429693254167 0 -0.040059608754612105 -0.050465182992295271 0 -0.041089858363406104 -0.050647284903381218 0 -0.040310740244221634 -0.051065157527469721 0 -0.040059608754612105 -0.050465182992295271 0 -0.040375785965199383 -0.049999429693254167 0 -0.041089858363406104 -0.050647284903381218 0 -0.041206412090067875 -0.050469185959088836 0 -0.039544323427781768 -0.051299089281718994 0 -0.040981597574306111 -0.050301116142352331 0 -0.041749831327209198 -0.05073687650792913 0 -0.040239987347537802 -0.050838765886045037 0 -0.038876627398095852 -0.050393740623162896 0 -0.038372127546008439 -0.051765607498296111 0 -0.036762224737143107 -0.051628045530682676 0 -0.038876627398095852 -0.050393740623162896 0 -0.038372127546008439 -0.051765607498296111 0 -0.040076791645474855 -0.052550944872322453 0 -0.038372127546008439 -0.051765607498296111 0 -0.040076791645474855 -0.052550944872322453 0 -0.037683949012112243 -0.053033029485456663 0 -0.041329301618609947 -0.048926428085029769 0 -0.037736799899946008 -0.04899787305423077 0 -0.039544323427781768 -0.051299089281718994 0 -0.041329301618609947 -0.048926428085029769 0 -0.041749831327209198 -0.05073687650792913 0 -0.040239987347537802 -0.050838765886045037 0 -0.042066669972496695 -0.051422991026560727 0 -0.041749831327209198 -0.05073687650792913 0 -0.042066669972496695 -0.051422991026560727 0 -0.042730575994484439 -0.050863164598615181 0 -0.042103261201471495 -0.042325271278289292 0 -0.046409210738577962 -0.044369968870996042 0 -0.041329301618609947 -0.048926428085029769 0 -0.04296476546245806 -0.047529769552507178 0 -0.042578575489651424 -0.044442784564140476 0 -0.043053974702324499 -0.044744893881293601 0 -0.043236465147875533 -0.044105187837959837 0 -0.041329301618609947 -0.048926428085029769 0 -0.042103261201471495 -0.042325271278289292 0 -0.042896274517244322 -0.039646371167140607 0 -0.040084462158803395 -0.039771817292917795 0 -0.040888176780162218 -0.041555964049650271 0 -0.041118576817356402 -0.044371490982107062 0 -0.03785111432684167 -0.044893903864660037 0 -0.038183748289652437 -0.045450239660776 0 -0.041118576817356402 -0.044371490982107062 0 -0.039570581413715472 -0.045403781981192853 0 -0.038183748289652437 -0.045450239660776 0 -0.041118576817356402 -0.044371490982107062 0 -0.041655833755438 -0.045398244512779469 0 -0.039570581413715472 -0.045403781981192853 0 -0.042103261201471495 -0.042325271278289292 0 -0.039712303264847926 -0.04189161544767922 0 -0.039712303264847926 -0.04189161544767922 0 -0.041172123359977532 -0.04058751338453731 0 -0.038289130211344967 -0.041293541635204642 0 -0.03823234351495991 -0.041177318766937608 0 -0.038346027045741762 -0.041114604971375111 0 -0.039633699082722948 -0.040271855003537346 0 -0.041172123359977532 -0.04058751338453731 0 -0.042227733363574861 -0.049976665545130687 0 -0.042972152772766878 -0.049482670210915056 0 -0.042760156536378442 -0.050042025280958392 0 -0.044147849171859967 -0.04949264967225319 0 -0.046531395820284482 -0.048972887051777207 0 -0.042972152772766878 -0.049482670210915056 0 -0.042760156536378442 -0.050042025280958392 0 -0.043237533745290276 -0.049995956557857969 0 -0.046531395820284482 -0.048972887051777207 0 -0.04404523126457105 -0.048534040803132054 0 -0.046531395820284482 -0.048972887051777207 0 -0.047317770923477824 -0.049010305120847392 0 -0.042760156536378442 -0.050042025280958392 0 -0.042730575994484439 -0.050863164598615181 0 -0.043237533745290276 -0.049995956557857969 0 -0.041749831327209198 -0.05073687650792913 0 -0.042385403234568082 -0.05031045883094841 0 -0.042730575994484439 -0.050863164598615181 0 -0.042760156536378442 -0.050042025280958392 0 -0.042385403234568082 -0.05031045883094841 0 -0.042730575994484439 -0.050863164598615181 0 -0.043236465147875533 -0.044105187837959837 0 -0.043845785323064969 -0.044292784276984368 0 -0.043696774780167744 -0.043724435559341038 0 -0.043053974702324499 -0.044744893881293601 0 -0.043236465147875533 -0.044105187837959837 0 -0.043845785323064969 -0.044292784276984368 0 -0.046409210738577962 -0.044369968870996042 0 -0.04404523126457105 -0.048534040803132054 0 -0.04296476546245806 -0.047529769552507178 0 -0.04404523126457105 -0.048534040803132054 0 -0.04244174113774369 -0.0398829247885788 0 -0.045897578701672569 -0.039813770926526569 0 -0.046182953748683656 -0.04192839749254737 0 -0.045897578701672569 -0.039813770926526569 0 -0.049692625111350766 -0.040187806406689702 0 -0.046905600561806302 -0.040621928439332239 0 -0.046409210738577962 -0.044369968870996042 0 -0.048042985596650552 -0.04492163978421828 0 -0.053061783212742401 -0.047871661320753676 0 -0.046619959809619554 -0.053161659708466862 0 -0.04049915138880078 -0.045296899592694895 0 -0.04404523126457105 -0.048534040803132054 0 -0.047317770923477824 -0.049010305120847392 0 -0.046619959809619554 -0.053161659708466862 0 -0.041422146377629143 -0.052521437636640494 0 -0.04049915138880078 -0.045296899592694895 0 -0.05037223063421329 -0.047509699879277632 0 -0.050580630831816756 -0.049596292083806622 0 -0.051111104876860769 -0.048438264357289117 0 -0.044063489255114864 -0.049999490871831094 0 -0.043678833101071957 -0.051122363483039397 0 -0.044649963900450992 -0.050689030260470599 0 -0.047317770923477824 -0.049010305120847392 0 -0.048042985596650552 -0.04492163978421828 0 -0.049692625111350766 -0.040187806406689702 0 -0.048397463747837148 -0.041750989504795638 0 -0.050653276465870589 -0.042917036615449038 0 -0.049692625111350766 -0.040187806406689702 0 -0.048397463747837148 -0.041750989504795638 0 -0.046905600561806302 -0.040621928439332239 0 -0.048397463747837148 -0.041750989504795638 0 -0.049069842068604888 -0.042901724236747353 0 -0.050653276465870589 -0.042917036615449038 0 -0.048397463747837148 -0.041750989504795638 0 -0.046182953748683656 -0.04192839749254737 0 -0.049069842068604888 -0.042901724236747353 0 -0.045897578701672569 -0.039813770926526569 0 -0.046905600561806302 -0.040621928439332239 0 -0.046182953748683656 -0.04192839749254737 0 -0.048397463747837148 -0.041750989504795638 0 -0.046905600561806302 -0.040621928439332239 0 -0.046182953748683656 -0.04192839749254737 0 -0.046748659142067134 -0.038972078851032384 0 -0.045485428267226201 -0.039241163836760753 0 -0.045995424092421841 -0.03945092593541577 0 -0.046182953748683656 -0.04192839749254737 0 -0.048366241777427516 -0.043899253354135359 0 -0.049069842068604888 -0.042901724236747353 0 -0.047485540574998576 -0.041314427627545919 0 -0.044842755665575329 -0.041286896483108897 0 -0.046748659142067134 -0.038972078851032384 0 -0.045422917674938737 -0.03919713834306332 0 -0.045485428267226201 -0.039241163836760753 0 -0.046182953748683656 -0.04192839749254737 0 -0.048366241777427516 -0.043899253354135359 0 -0.04414153439690939 -0.043126227760045079 0 -0.049069842068604888 -0.042901724236747353 0 -0.050653276465870589 -0.042917036615449038 0 -0.050907158750254138 -0.042618000093223196 0 -0.048366241777427516 -0.043899253354135359 0 -0.049069842068604888 -0.042901724236747353 0 -0.050907158750254138 -0.042618000093223196 0 -0.038392400070694457 -0.041052236782032958 0 -0.039267729694988728 -0.041055004154104929 0 -0.038819643623112944 -0.04131571011539812 0 -0.041172123359977532 -0.04058751338453731 0 -0.044842755665575329 -0.041286896483108897 0 -0.044408024610507045 -0.039690548515422711 0 -0.045184782448794765 -0.039471930837060347 0 -0.045260628008457114 -0.039698479524510423 0 -0.041172123359977532 -0.04058751338453731 0 -0.042261010042285677 -0.040369064824954282 0 -0.038392400070694457 -0.041052236782032958 0 -0.038819643623112944 -0.04131571011539812 0 -0.038484810275098313 -0.041369713560987675 0 -0.038289130211344967 -0.041293541635204642 0 -0.038392400070694457 -0.041052236782032958 0 -0.038484810275098313 -0.041369713560987675 0 -0.044408024610507045 -0.039690548515422711 0 -0.045306265335051638 -0.039175838127161224 0 -0.045184782448794765 -0.039471930837060347 0 -0.042896274517244322 -0.039646371167140607 0 -0.040888176780162218 -0.041555964049650271 0 -0.044440086049335831 -0.043209600531120565 0 -0.04244174113774369 -0.0398829247885788 0 -0.046182953748683656 -0.04192839749254737 0 -0.04414153439690939 -0.043126227760045079 0 -0.042103261201471495 -0.042325271278289292 0 -0.044842755665575329 -0.041286896483108897 0 -0.045485428267226201 -0.039241163836760753 0 -0.045524808373757629 -0.039512440422124102 0 -0.045995424092421841 -0.03945092593541577 0 -0.044842755665575329 -0.041286896483108897 0 -0.04482015011448761 -0.040805718045348036 0 -0.045524808373757629 -0.039512440422124102 0 -0.045184782448794765 -0.039471930837060347 0 -0.045260628008457114 -0.039698479524510423 0 -0.045306265335051638 -0.039175838127161224 0 -0.045485428267226201 -0.039241163836760753 0 -0.045184782448794765 -0.039471930837060347 0 -0.045485428267226201 -0.039241163836760753 0 -0.045524808373757629 -0.039512440422124102 0 -0.045184782448794765 -0.039471930837060347 0 -0.039267729694988728 -0.041055004154104929 0 -0.038819643623112944 -0.04131571011539812 0 -0.039345546556633394 -0.041467671381089428 0 -0.040314817606909872 -0.041171415747812301 0 -0.040257906696680522 -0.041659019872284063 0 -0.039345546556633394 -0.041467671381089428 0 -0.042261010042285677 -0.040369064824954282 0 -0.042933910770297477 -0.040634672007759928 0 -0.039267729694988728 -0.041055004154104929 0 -0.040314817606909872 -0.041171415747812301 0 -0.039345546556633394 -0.041467671381089428 0 -0.045524808373757629 -0.039512440422124102 0 -0.045260628008457114 -0.039698479524510423 0 -0.045543946386424679 -0.039987735519156506 0 -0.045524808373757629 -0.039512440422124102 0 -0.045995424092421841 -0.03945092593541577 0 -0.045543946386424679 -0.039987735519156506 0 -0.045995424092421841 -0.03945092593541577 0 -0.045543946386424679 -0.039987735519156506 0 -0.046717941181817206 -0.039552142185825395 0 -0.042933910770297477 -0.040634672007759928 0 -0.043620856530751179 -0.041270431567060624 0 -0.045543946386424679 -0.039987735519156506 0 -0.046717941181817206 -0.039552142185825395 0 -0.045448499472386668 -0.040639623366685411 0 -0.040314817606909872 -0.041171415747812301 0 -0.040257906696680522 -0.041659019872284063 0 -0.041709936852556487 -0.041485872049789277 0 -0.048366241777427516 -0.043899253354135359 0 -0.050962238896692963 -0.04242833283035579 0 -0.050907158750254138 -0.042618000093223196 0 -0.046748659142067134 -0.038972078851032384 0 -0.046717941181817206 -0.039552142185825395 0 -0.048368303476417136 -0.038843910318238264 0 -0.047485540574998576 -0.041314427627545919 0 -0.049570462667141275 -0.040599185224034259 0 -0.046748659142067134 -0.038972078851032384 0 -0.045995424092421841 -0.03945092593541577 0 -0.046717941181817206 -0.039552142185825395 0 -0.046717941181817206 -0.039552142185825395 0 -0.047632083105997987 -0.039656165818018979 0 -0.046857426951036257 -0.04037047104829769 0 -0.047632083105997987 -0.039656165818018979 0 -0.048368303476417136 -0.038843910318238264 0 -0.04853693343485041 -0.039986121287153766 0 -0.046717941181817206 -0.039552142185825395 0 -0.047632083105997987 -0.039656165818018979 0 -0.048368303476417136 -0.038843910318238264 0 -0.048368303476417136 -0.038843910318238264 0 -0.049471002830539831 -0.039446534578100455 0 -0.04853693343485041 -0.039986121287153766 0 -0.048368303476417136 -0.038843910318238264 0 -0.050051222215958195 -0.039018025947527742 0 -0.049471002830539831 -0.039446534578100455 0 -0.050962238896692963 -0.04242833283035579 0 -0.051148144119621264 -0.041440921519554925 0 -0.051548753290583206 -0.039811136373019265 0 -0.049570462667141275 -0.040599185224034259 0 -0.050714563397628871 -0.039376974895389383 0 -0.050962238896692963 -0.04242833283035579 0 -0.051148144119621264 -0.041440921519554925 0 -0.050907158750254138 -0.042618000093223196 0 -0.051148144119621264 -0.041440921519554925 0 -0.050776165236004714 -0.040036115629580905 0 -0.050676789835795676 -0.042050074580372229 0 -0.051148144119621264 -0.041440921519554925 0 -0.050907158750254138 -0.042618000093223196 0 -0.050676789835795676 -0.042050074580372229 0 -0.051148144119621264 -0.041440921519554925 0 -0.051548753290583206 -0.039811136373019265 0 -0.050776165236004714 -0.040036115629580905 0 -0.050776165236004714 -0.040036115629580905 0 -0.049999050648865687 -0.038247615063520896 0 -0.049996350356796178 -0.04314946877652661 0 -0.051548753290583206 -0.039811136373019265 0 -0.050776165236004714 -0.040036115629580905 0 -0.051273428891983004 -0.037286202264922373 0 -0.050776165236004714 -0.040036115629580905 0 -0.049999050648865687 -0.038247615063520896 0 -0.051273428891983004 -0.037286202264922373 0 -0.049996350356796178 -0.04314946877652661 0 -0.050198384053821946 -0.043963154250098016 0 -0.050676789835795676 -0.042050074580372229 0 -0.050776165236004714 -0.040036115629580905 0 -0.049996350356796178 -0.04314946877652661 0 -0.050676789835795676 -0.042050074580372229 0 -0.04950254128136905 -0.046283647829343286 0 -0.049996350356796178 -0.04314946877652661 0 -0.050198384053821946 -0.043963154250098016 0 -0.049881454453653884 -0.046230412643698926 0 -0.050198384053821946 -0.043963154250098016 0 -0.050463654140260279 -0.044987270024500772 0 -0.050198384053821946 -0.043963154250098016 0 -0.050463654140260279 -0.044987270024500772 0 -0.050653276465870589 -0.042917036615449038 0 -0.051569533411974636 -0.04508133652171905 0 -0.050463654140260279 -0.044987270024500772 0 -0.050653276465870589 -0.042917036615449038 0 -0.048042985596650552 -0.04492163978421828 0 -0.050980924193993325 -0.045261128648838182 0 -0.048042985596650552 -0.04492163978421828 0 -0.050253820505037863 -0.042559765513686697 0 -0.050198384053821946 -0.043963154250098016 0 -0.050653276465870589 -0.042917036615449038 0 -0.050907158750254138 -0.042618000093223196 0 -0.050198384053821946 -0.043963154250098016 0 -0.050907158750254138 -0.042618000093223196 0 -0.050676789835795676 -0.042050074580372229 0 -0.026274138899100227 -0.047933840795882268 0 -0.025997072200979039 -0.048401475908524817 0 -0.025619051941179624 -0.048415932351665615 0 -0.026274138899100227 -0.047933840795882268 0 -0