<?xml version="1.0"?>
<VTKFile type="UnstructuredGrid" version="0.1" byte_order="LittleEndian">
<UnstructuredGrid>
<Piece NumberOfPoints="31947" NumberOfCells="11176">
<Points>
<DataArray type="Float64" NumberOfComponents="3" format="ascii">
-0.5 -0.5 0 -0.47291164641495098 -0.47998228002335619 0 -0.43145591371879038 -0.5 0 -0.5 -0.5 0 -0.50000000000000433 -0.47788428187462728 0 -0.47291164641495098 -0.47998228002335619 0 -0.50000000000000433 -0.47788428187462728 0 -0.47291164641495098 -0.47998228002335619 0 -0.48585201880880391 -0.46271394907832608 0 -0.50000000000000433 -0.47788428187462728 0 -0.48585201880880391 -0.46271394907832608 0 -0.47291164641495098 -0.47998228002335619 0 -0.4691647414294921 -0.46441675892759238 0 -0.48585201880880391 -0.46271394907832608 0 -0.47291164641495098 -0.47998228002335619 0 -0.45099720453261299 -0.47487869025959373 0 -0.43145591371879038 -0.5 0 -0.47291164641495098 -0.47998228002335619 0 -0.45099720453261299 -0.47487869025959373 0 -0.4691647414294921 -0.46441675892759238 0 -0.44944164227175931 -0.44308997408865619 0 -0.44458614074969038 -0.45362674204253639 0 -0.45904879883441019 -0.45293501062497732 0 -0.44944164227175931 -0.44308997408865619 0 -0.44224392598280859 -0.44224994629392461 0 -0.44458614074969038 -0.45362674204253639 0 -0.44944164227175931 -0.44308997408865619 0 -0.45012294552657017 -0.43389347947670209 0 -0.44944164227175931 -0.44308997408865619 0 -0.44224392598280859 -0.44224994629392461 0 -0.45012294552657017 -0.43389347947670209 0 -0.44224392598280859 -0.44224994629392461 0 -0.43800636655066633 -0.43637152333098561 0 -0.43643311689447861 -0.44657975739963329 0 -0.44224392598280859 -0.44224994629392461 0 -0.45012294552657017 -0.43389347947670209 0 -0.43800636655066633 -0.43637152333098561 0 -0.44224392598280859 -0.44224994629392461 0 -0.44458614074969038 -0.45362674204253639 0 -0.43643311689447861 -0.44657975739963329 0 -0.45099720453261299 -0.47487869025959373 0 -0.44458614074969038 -0.45362674204253639 0 -0.42935215598207299 -0.46202707358843342 0 -0.45099720453261299 -0.47487869025959373 0 -0.44458614074969038 -0.45362674204253639 0 -0.45904879883441019 -0.45293501062497732 0 -0.45904879883441019 -0.45293501062497732 0 -0.47170403761760121 -0.4475436162820271 0 -0.4691647414294921 -0.46441675892759238 0 -0.45099720453261299 -0.47487869025959373 0 -0.45904879883441019 -0.45293501062497732 0 -0.4691647414294921 -0.46441675892759238 0 -0.44944164227175931 -0.44308997408865619 0 -0.45904879883441019 -0.45293501062497732 0 -0.4575560564263994 -0.43237328348572729 0 -0.45904879883441019 -0.45293501062497732 0 -0.47170403761760121 -0.4475436162820271 0 -0.4575560564263994 -0.43237328348572729 0 -0.47170403761760121 -0.4475436162820271 0 -0.4575560564263994 -0.43237328348572729 0 -0.47170403761760121 -0.4475436162820271 0 -0.48668318433556729 -0.44193098916938089 0 -0.47875519273360789 -0.42803770414879561 0 -0.47170403761760121 -0.4475436162820271 0 -0.48585201880880391 -0.46271394907832608 0 -0.48668318433556729 -0.44193098916938089 0 -0.47170403761760121 -0.4475436162820271 0 -0.4691647414294921 -0.46441675892759238 0 -0.48585201880880391 -0.46271394907832608 0 -0.47170403761760121 -0.4475436162820271 0 -0.48585201880880391 -0.46271394907832608 0 -0.50000000000000433 -0.47788428187462728 0 -0.48585201880880391 -0.46271394907832608 0 -0.5 -0.45079320334324668 0 -0.5 -0.45079320334324668 0 -0.48668318433556729 -0.44193098916938089 0 -0.49995432904081683 -0.42370212481186631 0 -0.48585201880880391 -0.46271394907832608 0 -0.5 -0.45079320334324668 0 -0.48668318433556729 -0.44193098916938089 0 -0.49995432904081683 -0.42370212481186631 0 -0.49031232461334501 -0.41958847723210829 0 -0.47875519273360789 -0.42803770414879561 0 -0.48668318433556729 -0.44193098916938089 0 -0.49995432904081683 -0.42370212481186631 0 -0.47875519273360789 -0.42803770414879561 0 -0.49995432904081683 -0.42370212481186631 0 -0.47875519273360789 -0.42803770414879561 0 -0.49031232461334501 -0.41958847723210829 0 -0.47814957490924243 -0.41402158561491431 0 -0.48533645757380739 -0.40368392297237921 0 -0.49031232461334501 -0.41958847723210829 0 -0.48533645757380739 -0.40368392297237921 0 -0.49031232461334501 -0.41958847723210829 0 -0.5 -0.40374154659835249 0 -0.48533645757380739 -0.40368392297237921 0 -0.49995432904081683 -0.42370212481186631 0 -0.49031232461334501 -0.41958847723210829 0 -0.5 -0.40374154659835249 0 -0.47814957490924243 -0.41402158561491431 0 -0.48533645757380739 -0.40368392297237921 0 -0.46906812126939468 -0.40328547935508458 0 -0.49031232461334501 -0.41958847723210829 0 -0.47814957490924243 -0.41402158561491431 0 -0.47875519273360789 -0.42803770414879561 0 -0.47875519273360789 -0.42803770414879561 0 -0.46126253921706689 -0.42204745915435937 0 -0.46727577835605699 -0.41551234436620321 0 -0.47814957490924243 -0.41402158561491431 0 -0.46906812126939468 -0.40328547935508458 0 -0.46727577835605699 -0.41551234436620321 0 -0.47814957490924243 -0.41402158561491431 0 -0.47875519273360789 -0.42803770414879561 0 -0.46727577835605699 -0.41551234436620321 0 -0.47170403761760121 -0.4475436162820271 0 -0.47875519273360789 -0.42803770414879561 0 -0.4575560564263994 -0.43237328348572729 0 -0.49999999999999789 -0.38378096838483872 0 -0.49142426202701889 -0.39474645166705657 0 -0.48036059053426933 -0.38777936871265029 0 -0.49999999999999789 -0.38378096838483872 0 -0.48036059053426933 -0.38777936871265029 0 -0.49999999999999789 -0.38378096838483872 0 -0.48036059053426933 -0.38777936871265029 0 -0.48736435168140257 -0.37133275655010689 0 -0.49999999999999789 -0.38378096838483872 0 -0.49142426202701889 -0.39474645166705657 0 -0.5 -0.40374154659835249 0 -0.49142426202701889 -0.39474645166705657 0 -0.48533645757380739 -0.40368392297237921 0 -0.48036059053426933 -0.38777936871265029 0 -0.49142426202701889 -0.39474645166705657 0 -0.5 -0.40374154659835249 0 -0.48533645757380739 -0.40368392297237921 0 -0.48533645757380739 -0.40368392297237921 0 -0.48036059053426933 -0.38777936871265029 0 -0.48533645757380739 -0.40368392297237921 0 -0.46906812126939468 -0.40328547935508458 0 -0.48036059053426933 -0.38777936871265029 0 -0.48036059053426933 -0.38777936871265029 0 -0.46681845321594467 -0.37776328035327839 0 -0.47223744594528688 -0.36181505076594062 0 -0.48036059053426933 -0.38777936871265029 0 -0.46681845321594467 -0.37776328035327839 0 -0.45312848313319598 -0.39332357142148261 0 -0.46681845321594467 -0.37776328035327839 0 -0.45312848313319598 -0.39332357142148261 0 -0.45518352746400748 -0.36558378890584831 0 -0.45312848313319598 -0.39332357142148261 0 -0.45518352746400748 -0.36558378890584831 0 -0.48036059053426933 -0.38777936871265029 0 -0.45312848313319598 -0.39332357142148261 0 -0.46906812126939468 -0.40328547935508458 0 -0.48036059053426933 -0.38777936871265029 0 -0.45312848313319598 -0.39332357142148261 0 -0.46906812126939468 -0.40328547935508458 0 -0.45312848313319598 -0.39332357142148261 0 -0.45195138390082318 -0.40921251173085083 0 -0.44436579112745322 -0.39510757366704208 0 -0.44130764633640812 -0.41495074205422311 0 -0.45312848313319598 -0.39332357142148261 0 -0.45195138390082318 -0.40921251173085083 0 -0.45312848313319598 -0.39332357142148261 0 -0.44436579112745322 -0.39510757366704208 0 -0.45195138390082318 -0.40921251173085083 0 -0.45312848313319598 -0.39332357142148261 0 -0.44436579112745322 -0.39510757366704208 0 -0.44436579112745322 -0.39510757366704208 0 -0.44687421819164608 -0.3788313199175451 0 -0.43569662450111191 -0.38128365304766082 0 -0.45312848313319598 -0.39332357142148261 0 -0.45518352746400748 -0.36558378890584831 0 -0.44868375247440512 -0.3670899224597412 0 -0.45312848313319598 -0.39332357142148261 0 -0.44687421819164608 -0.3788313199175451 0 -0.44868375247440512 -0.3670899224597412 0 -0.45312848313319598 -0.39332357142148261 0 -0.44436579112745322 -0.39510757366704208 0 -0.44687421819164608 -0.3788313199175451 0 -0.44436579112745322 -0.39510757366704208 0 -0.44687421819164608 -0.3788313199175451 0 -0.44687421819164608 -0.3788313199175451 0 -0.43569662450111191 -0.38128365304766082 0 -0.43935121753743761 -0.37636839254663379 0 -0.44687421819164608 -0.3788313199175451 0 -0.43569662450111191 -0.38128365304766082 0 -0.43935121753743761 -0.37636839254663379 0 -0.43569662450111191 -0.38128365304766082 0 -0.47875519273360789 -0.42803770414879561 0 -0.4575560564263994 -0.43237328348572729 0 -0.46126253921706689 -0.42204745915435937 0 -0.47875519273360789 -0.42803770414879561 0 -0.4575560564263994 -0.43237328348572729 0 -0.4575560564263994 -0.43237328348572729 0 -0.46126253921706689 -0.42204745915435937 0 -0.45077428466844838 -0.42510145204021887 0 -0.4575560564263994 -0.43237328348572729 0 -0.45077428466844838 -0.42510145204021887 0 -0.4575560564263994 -0.43237328348572729 0 -0.45012294552657017 -0.43389347947670209 0 -0.46126253921706689 -0.42204745915435937 0 -0.45195138390082318 -0.40921251173085083 0 -0.45077428466844838 -0.42510145204021887 0 -0.46906812126939468 -0.40328547935508458 0 -0.46727577835605699 -0.41551234436620321 0 -0.45195138390082318 -0.40921251173085083 0 -0.46126253921706689 -0.42204745915435937 0 -0.46727577835605699 -0.41551234436620321 0 -0.45195138390082318 -0.40921251173085083 0 -0.45195138390082318 -0.40921251173085083 0 -0.44130764633640812 -0.41495074205422311 0 -0.45077428466844838 -0.42510145204021887 0 -0.44436579112745322 -0.39510757366704208 0 -0.45195138390082318 -0.40921251173085083 0 -0.44130764633640812 -0.41495074205422311 0 -0.44130764633640812 -0.41495074205422311 0 -0.45077428466844838 -0.42510145204021887 0 -0.45195138390082318 -0.40921251173085083 0 -0.45077428466844838 -0.42510145204021887 0 -0.44436579112745322 -0.39510757366704208 0 -0.44130764633640812 -0.41495074205422311 0 -0.42827303486001211 -0.41305505942262499 0 -0.44130764633640812 -0.41495074205422311 0 -0.43800636655066633 -0.43637152333098561 0 -0.4361379896120311 -0.4195955178792854 0 -0.44130764633640812 -0.41495074205422311 0 -0.43800636655066633 -0.43637152333098561 0 -0.4413076
[...]
<PointData Scalars="" Vectors="displacement," Tensors="">
<DataArray type="Float64" Name="displacement" NumberOfComponents="3" format="ascii">
-0.05000001183511734 -1.9913558134301923e-07 0 -0.047009341915155857 -0.00018947832850458151 0 -0.043145809640777771 -1.7168032564349973e-06 0 -0.05000001183511734 -1.9913558134301923e-07 0 -0.049992434232174109 1.7493606827064969e-06 0 -0.047009341915155857 -0.00018947832850458151 0 -0.049992434232174109 1.7493606827064969e-06 0 -0.047009341915155857 -0.00018947832850458151 0 -0.0465947631508416 0.00020565512526700123 0 -0.049999002698141233 -8.8796805716069337e-08 0 -0.048285091066217055 -4.9558456471446032e-05 0 -0.047009341915155857 -0.00018947832850458151 0 -0.04580733569010819 -0.00026172216414335124 0 -0.0465947631508416 0.00020565512526700123 0 -0.047009341915155857 -0.00018947832850458151 0 -0.044971834238905939 -0.00039620046039619446 0 -0.043145809640777771 -1.7168032564349973e-06 0 -0.047009341915155857 -0.00018947832850458151 0 -0.044971834238905939 -0.00039620046039619446 0 -0.04580733569010819 -0.00026172216414335124 0 -0.044320747921383838 -0.00056956128547166454 0 -0.044228236883533431 -0.00053446562866836403 0 -0.04481654137245613 -0.00044400610448539933 0 -0.044320747921383838 -0.00056956128547166454 0 -0.044145213548861383 -0.00057832855615467756 0 -0.044228236883533431 -0.00053446562866836403 0 -0.044264023846620607 -0.00033662488187267964 0 -0.045495404071858862 -0.00015308679347033211 0 -0.044320747921383838 -0.00056956128547166454 0 -0.044145213548861383 -0.00057832855615467756 0 -0.044217275721187721 -0.00059868335017561889 0 -0.044145213548861383 -0.00057832855615467756 0 -0.044233606746245761 -0.00050928304574883996 0 -0.043878483636636746 -0.0005068456187608657 0 -0.044145213548861383 -0.00057832855615467756 0 -0.044217275721187721 -0.00059868335017561889 0 -0.044233606746245761 -0.00050928304574883996 0 -0.044145213548861383 -0.00057832855615467756 0 -0.044228236883533431 -0.00053446562866836403 0 -0.043878483636636746 -0.0005068456187608657 0 -0.044971834238905939 -0.00039620046039619446 0 -0.044228236883533431 -0.00053446562866836403 0 -0.043575670287655272 -0.00051660988557620038 0 -0.044971834238905939 -0.00039620046039619446 0 -0.044228236883533431 -0.00053446562866836403 0 -0.04481654137245613 -0.00044400610448539933 0 -0.04481654137245613 -0.00044400610448539933 0 -0.04484031529396118 -7.270695169314846e-05 0 -0.04580733569010819 -0.00026172216414335124 0 -0.044971834238905939 -0.00039620046039619446 0 -0.04481654137245613 -0.00044400610448539933 0 -0.04580733569010819 -0.00026172216414335124 0 -0.044320747921383838 -0.00056956128547166454 0 -0.04481654137245613 -0.00044400610448539933 0 -0.044182410281105172 -0.00042951943886382717 0 -0.04481654137245613 -0.00044400610448539933 0 -0.04484031529396118 -7.270695169314846e-05 0 -0.044182410281105172 -0.00042951943886382717 0 -0.047340426410429168 -0.00016248858351094892 0 -0.047803573383670639 -0.00031782318413293254 0 -0.049987839485995042 -7.0733875209743249e-05 0 -0.049985961735782208 -2.6010065978788517e-05 0 -0.049950214360067163 -5.2984513207986497e-05 0 -0.049987839485995042 -7.0733875209743249e-05 0 -0.050002669642696014 -1.9973635715445644e-05 0 -0.049985961735782208 -2.6010065978788517e-05 0 -0.04484031529396118 -7.270695169314846e-05 0 -0.04580733569010819 -0.00026172216414335124 0 -0.0465947631508416 0.00020565512526700123 0 -0.047340426410429168 -0.00016248858351094892 0 -0.048285091066217055 -4.9558456471446032e-05 0 -0.050000010126685188 -5.4014224658733822e-10 0 -0.050002669642696014 -1.9973635715445644e-05 0 -0.050000002767855219 -2.5094579433580683e-08 0 -0.050000002767855219 -2.5094579433580683e-08 0 -0.049985961735782208 -2.6010065978788517e-05 0 -0.04999534394925581 -8.3368507534324158e-09 0 -0.050002669642696014 -1.9973635715445644e-05 0 -0.050000002767855219 -2.5094579433580683e-08 0 -0.049985961735782208 -2.6010065978788517e-05 0 -0.049995304507231095 6.3575722528400855e-08 0 -0.049964665407629047 2.3803745559478208e-06 0 -0.04995548024872222 -2.7377843853715744e-05 0 -0.049985961735782208 -2.6010065978788517e-05 0 -0.04999534394925581 -8.3368507534324158e-09 0 -0.049950214360067163 -5.2984513207986497e-05 0 -0.04999536137977658 4.4128419317744063e-08 0 -0.050108414166332292 -6.506354235920385e-05 0 -0.049964665407629047 2.3803745559478208e-06 0 -0.049882700673452011 -4.3487897652191394e-05 0 -0.049796878213999023 1.4960187494969592e-05 0 -0.049919170651539009 -2.2545136114934646e-06 0 -0.049987422267107839 3.5388725546610931e-05 0 -0.049964665407629047 2.3803745559478208e-06 0 -0.050000021209112518 -2.7164532416019258e-08 0 -0.049997459313101997 2.5433966703400249e-06 0 -0.049995304507231095 6.3575722528400855e-08 0 -0.049964665407629047 2.3803745559478208e-06 0 -0.050000021209112518 -2.7164532416019258e-08 0 -0.049882700673452011 -4.3487897652191394e-05 0 -0.049796878213999023 1.4960187494969592e-05 0 -0.049781064255646497 -0.00010113686732300621 0 -0.049964665407629047 2.3803745559478208e-06 0 -0.049882700673452011 -4.3487897652191394e-05 0 -0.04995548024872222 -2.7377843853715744e-05 0 -0.04995548024872222 -2.7377843853715744e-05 0 -0.049902276993568445 -0.00014423048574081093 0 -0.049870230402522628 -0.00010844160856991969 0 -0.049882700673452011 -4.3487897652191394e-05 0 -0.049781064255646497 -0.00010113686732300621 0 -0.049870230402522628 -0.00010844160856991969 0 -0.049882700673452011 -4.3487897652191394e-05 0 -0.04995548024872222 -2.7377843853715744e-05 0 -0.049870230402522628 -0.00010844160856991969 0 -0.049987839485995042 -7.0733875209743249e-05 0 -0.049950214360067163 -5.2984513207986497e-05 0 -0.049934103594209134 -0.00014249658692465798 0 -0.049999979391966862 -1.77292756862188e-08 0 -0.049999689221571393 -3.7974616307609511e-06 0 -0.049994221139052143 -2.109150467433821e-05 0 -0.050000190397345337 -2.7944662345826723e-07 0 -0.049186356036705015 9.9182731529203315e-05 0 -0.050000053318771033 -1.1252374587758184e-09 0 -0.050012221844685449 -1.742828971070086e-05 0 -0.050013551970377226 -3.1304652609835378e-05 0 -0.049999979391966862 -1.77292756862188e-08 0 -0.049999689221571393 -3.7974616307609511e-06 0 -0.050000021209112518 -2.7164532416019258e-08 0 -0.049999689221571393 -3.7974616307609511e-06 0 -0.049997459313101997 2.5433966703400249e-06 0 -0.049994221139052143 -2.109150467433821e-05 0 -0.049999689221571393 -3.7974616307609511e-06 0 -0.050000021209112518 -2.7164532416019258e-08 0 -0.049997459313101997 2.5433966703400249e-06 0 -0.049987422267107839 3.5388725546610931e-05 0 -0.049186356036705015 9.9182731529203315e-05 0 -0.049796878213999023 1.4960187494969592e-05 0 -0.049781064255646497 -0.00010113686732300621 0 -0.049661142158501176 -1.6950175721738547e-05 0 -0.047251991969765879 0.00018676930300844392 0 -0.046932429010222557 -0.00023082192837531914 0 -0.046444326734327801 -6.4984870721141659e-05 0 -0.047251991969765879 0.00018676930300844392 0 -0.046932429010222557 -0.00023082192837531914 0 -0.047402211605016294 -0.0006512400120839574 0 -0.046932429010222557 -0.00023082192837531914 0 -0.047402211605016294 -0.0006512400120839574 0 -0.046547470101954834 -0.00058999346922333274 0 -0.04636529032156695 -0.00060293310749982105 0 -0.044334127542904819 -0.00069844391926964227 0 -0.049186356036705015 9.9182731529203315e-05 0 -0.04636529032156695 -0.00060293310749982105 0 -0.049781064255646497 -0.00010113686732300621 0 -0.049661142158501176 -1.6950175721738547e-05 0 -0.049687130699183207 -0.00021676194274382544 0 -0.049781064255646497 -0.00010113686732300621 0 -0.049687130699183207 -0.00021676194274382544 0 -0.049809720324892004 -0.00021640564890875708 0 -0.04356304749937049 -0.00075115403869092749 0 -0.045247697580193411 -0.00048702600401105635 0 -0.04636529032156695 -0.00060293310749982105 0 -0.048412690954402003 -0.00034276242110204113 0 -0.045539291085958791 -0.00035044456143625436 0 -0.045620086521873278 -0.00077214010771755031 0 -0.046312114959762146 -0.00039857174115970058 0 -0.04636529032156695 -0.00060293310749982105 0 -0.04356304749937049 -0.00075115403869092749 0 -0.039977945520981786 -0.0012085763901217069 0 -0.039921053716448517 -0.001204748940369938 0 -0.039924291947497324 -0.0012362760354200138 0 -0.043449122903271978 -0.00084050948702567557 0 -0.042498053013663217 -0.00081205234952629903 0 -0.042540341794697761 -0.0010182268092917134 0 -0.043449122903271978 -0.00084050948702567557 0 -0.042943124552911369 -0.0010670482237472186 0 -0.042540341794697761 -0.0010182268092917134 0 -0.043449122903271978 -0.00084050948702567557 0 -0.043506835064551157 -0.0011378608028788444 0 -0.042943124552911369 -0.0010670482237472186 0 -0.04356304749937049 -0.00075115403869092749 0 -0.039631310824851711 -0.0011506055742611333 0 -0.039631310824851711 -0.0011506055742611333 0 -0.03691997684255019 -0.001816167871154454 0 -0.035964074867550398 -0.0020526320830535809 0 -0.035895511000442235 -0.0022894794038248291 0 -0.035816195276784715 -0.001936048237243135 0 -0.03636745333805242 -0.0016891753014932123 0 -0.03691997684255019 -0.001816167871154454 0 -0.04995548024872222 -2.7377843853715744e-05 0 -0.049957009085264723 -0.00016234157658649723 0 -0.049902276993568445 -0.00014423048574081093 0 -0.050108414166332292 -6.506354235920385e-05 0 -0.047803573383670639 -0.00031782318413293254 0 -0.049957009085264723 -0.00016234157658649723 0 -0.049902276993568445 -0.00014423048574081093 0 -0.049910940936265892 -0.00021239091696043528 0 -0.047803573383670639 -0.00031782318413293254 0 -0.047419558543544509 -0.00016023708111204574 0 -0.047803573383670639 -0.00031782318413293254 0 -0.045495404071858862 -0.00015308679347033211 0 -0.049902276993568445 -0.00014423048574081093 0 -0.049809720324892004 -0.00021640564890875708 0 -0.049910940936265892 -0.00021239091696043528 0 -0.049781064255646497 -0.00010113686732300621 0 -0.049870230402522628 -0.00010844160856991969 0 -0.049809720324892004 -0.00021640564890875708 0 -0.049902276993568445 -0.00014423048574081093 0 -0.049870230402522628 -0.00010844160856991969 0 -0.049809720324892004 -0.00021640564890875708 0 -0.046312114959762146 -0.00039857174115970058 0 -0.046585558114725652 -0.00091268077396955286 0 -0.047085205049971234 -0.00044920349474872605 0 -0.045620086521873278 -0.00077214010771755031 0 -0.046312114959762146 -0.00039857174115970058 0 -0.046585558114725652 -0.00091268077396955286 0 -0.045247697580193411 -0.00048702600401105635 0 -0.047419558543544509 -0.00016023708111204574 0 -0.048412690954402003 -0.00034276242110204113 0 -0.047419558543544509 -0.00016023708111204574 0 -0.043458044610435252 -0.00054722786183688903 0 -0.043440110265202531 -0.00054000907459965288 0 -0.043441831991900409 -0.00052668487419156281 0 -0.043440110265202531 -0.00054000907459965288 0 -0.043428162062311905 -0.00050594500305183629 0 -0.04343261626666578 -0.00053189405882068561 0 -0.045247697580193411 -0.00048702600401105635 0 -0.044136216102390706 -0.00031661556447426867 0 -0.045722956857765631 -0.00016887730299314048 0 -0.045511330887494802 -0.00036631355418724248 0 -0.045265251762013792 -9.6595980096298844e-05 0 -0.047419558543544509 -0.00016023708111204574 0 -0.045495404071858862 -0.00015308679347033211 0 -0.045511330887494802 -0.00036631355418724248 0 -0.045322894916812136 -0.00035207551851172968 0 -0.045265251762013792 -9.6595980096298844e-05 0 -0.044320747921383838 -0.00056956128547166454 0 -0.044182410281105172 -0.00042951943886382717 0 -0.044221468829102217 -0.00054208315608723944 0 -0.046876559945935169 2.9200178902441606e-05 0 -0.046936856387491226 8.20737232973609e-05 0 -0.046861312968539896 9.008815593638694e-05 0 -0.045495404071858862 -0.00015308679347033211 0 -0.044136216102390706 -0.00031661556447426867 0 -0.043428162062311905 -0.00050594500305183629 0 -0.043417615238168394 -0.00052795143805084996 0 -0.043435438379098218 -0.00054647048971789185 0 -0.043428162062311905 -0.00050594500305183629 0 -0.043417615238168394 -0.00052795143805084996 0 -0.04343261626666578 -0.00053189405882068561 0 -0.043417615238168394 -0.00052795143805084996 0 -0.04340286071742807 -0.00053120782424795517 0 -0.043435438379098218 -0.00054647048971789185 0 -0.043417615238168394 -0.00052795143805084996 0 -0.043441831991900409 -0.00052668487419156281 0 -0.04340286071742807 -0.00053120782424795517 0 -0.043440110265202531 -0.00054000907459965288 0 -0.04343261626666578 -0.00053189405882068561 0 -0.043441831991900409 -0.00052668487419156281 0 -0.043417615238168394 -0.00052795143805084996 0 -0.04343261626666578 -0.00053189405882068561 0 -0.043441831991900409 -0.00052668487419156281 0 -0.03496671939134266 -0.0010489529606229641 0 -0.035521362824419207 -0.0014115004930532395 0 -0.035368637490340533 -0.00093561865659601133 0 -0.043441831991900409 -0.00052668487419156281 0 -0.043464341304220479 -0.0004265789771881256 0 -0.04340286071742807 -0.00053120782424795517 0 -0.039266484229173039 -0.00072121522322523613 0 -0.039114958191953528 -0.0011992701020544744 0 -0.03496671939134266 -0.0010489529606229641 0 -0.035540080516525685 -0.0014913132336532079 0 -0.035521362824419207 -0.0014115004930532395 0 -0.043441831991900409 -0.00052668487419156281 0 -0.043464341304220479 -0.0004265789771881256 0 -0.043450678781021657 -0.00051389616855425455 0 -0.04340286071742807 -0.00053120782424795517 0 -0.043435438379098218 -0.00054647048971789185 0 -0.043115950308347181 -0.00050095987571748685 0 -0.043464341304220479 -0.0004265789771881256 0 -0.04340286071742807 -0.00053120782424795517 0 -0.043115950308347181 -0.00050095987571748685 0 -0.035801620264610506 -0.0019297733306166327 0 -0.035635413709107035 -0.0012068466538521097 0 -0.035971363850223634 -0.0014654223437589868 0 -0.03691997684255019 -0.001816167871154454 0 -0.039114958191953528 -0.0011992701020544744 0 -0.036085851797835813 -0.0018966151754529769 0 -0.035751230153860301 -0.0014127602119936074 0 -0.035911453244944845 -0.0012276781480575168 0 -0.03691997684255019 -0.001816167871154454 0 -0.035683378358598049 -0.0012146278907164327 0 -0.035801620264610506 -0.0019297733306166327 0 -0.035971363850223634 -0.0014654223437589868 0 -0.036056560516555557 -0.0017643391364807021 0 -0.035964074867550398 -0.0020526320830535809 0 -0.035801620264610506 -0.0019297733306166327 0 -0.036056560516555557 -0.0017643391364807021 0 -0.036085851797835813 -0.0018966151754529769 0 -0.035538425426696406 -0.0014916502936817343 0 -0.035751230153860301 -0.0014127602119936074 0 -0.039977945520981786 -0.0012085763901217069 0 -0.039924291947497324 -0.0012362760354200138 0 -0.03997602310713981 -0.001268468869515382 0 -0.043458044610435252 -0.00054722786183688903 0 -0.043441831991900409 -0.00052668487419156281 0 -0.043450678781021657 -0.00051389616855425455 0 -0.04356304749937049 -0.00075115403869092749 0 -0.039114958191953528 -0.0011992701020544744 0 -0.035521362824419207 -0.0014115004930532395 0 -0.035622903821808743 -0.0011397827327353986 0 -0.035368637490340533 -0.00093561865659601133 0 -0.039114958191953528 -0.0011992701020544744 0 -0.038833010514423366 -0.0011305967747880065 0 -0.035622903821808743 -0.0011397827327353986 0 -0.035751230153860301 -0.0014127602119936074 0 -0.035911453244944845 -0.0012276781480575168 0 -0.035538425426696406 -0.0014916502936817343 0 -0.035521362824419207 -0.0014115004930532395 0 -0.035751230153860301 -0.0014127602119936074 0 -0.035521362824419207 -0.0014115004930532395 0 -0.035622903821808743 -0.0011397827327353986 0 -0.035751230153860301 -0.0014127602119936074 0 -0.035635413709107035 -0.0012068466538521097 0 -0.035971363850223634 -0.0014654223437589868 0 -0.0360398992937076 -0.00092624266576193535 0 -0.035489926572948957 -0.00053641937223710247 0 -0.035870783924654814 -0.00022805810142485818 0 -0.0360398992937076 -0.00092624266576193535 0 -0.035683378358598049 -0.0012146278907164327 0 -0.035610244745902506 -0.00057246125608226251 0 -0.035635413709107035 -0.0012068466538521097 0 -0.035489926572948957 -0.00053641937223710247 0 -0.0360398992937076 -0.00092624266576193535 0 -0.035622903821808743 -0.0011397827327353986 0 -0.035911453244944845 -0.0012276781480575168 0 -0.035709587983787851 -0.00058840379673770168 0 -0.035622903821808743 -0.0011397827327353986 0 -0.035368637490340533 -0.00093561865659601133 0 -0.035709587983787851 -0.00058840379673770168 0 -0.035368637490340533 -0.00093561865659601133 0 -0.035709587983787851 -0.00058840379673770168 0 -0.035026129353888005 -0.00050630598192932179 0 -0.035610244745902506 -0.00057246125608226251 0 -0.035437035270284481 4.3347147569857684e-05 0 -0.035709587983787851 -0.00058840379673770168 0 -0.035026129353888005 -0.00050630598192932179 0 -0.03550776358815555 1.1628417825111679e-05 0 -0.035489926572948957 -0.00053641937223710247 0 -0.035870783924654814 -0.00022805810142485818 0 -0.035371175434434465 7.1602476570287936e-05 0 -0.043464341304220479 -0.0004265789771881256 0 -0.043087975275811138 -4.4555508101659287e-05 0 -0.043115950308347181 -0.00050095987571748685 0 -0.03496671939134266 -0.0010489529606229641 0 -0.035026129353888005 -0.00050630598192932179 0 -0.034430132361592938 -0.00060948908513557649 0 -0.039266484229173039 -0.00072121522322523613 0 -0.038736865642514114 -0.00033639320709331156 0 -0.03496671939134266 -0.0010489529606229641 0 -0.035368637490340533 -0.00093561865659601133 0 -0.035026129353888005 -0.00050630598192932179 0 -0.035026129353888005 -0.00050630598192932179 0 -0.034717233211603256 -0.00025060813323138354 0 -0.034937489194164791 3.637206683656258e-05 0 -0.034717233211603256 -0.00025060813323138354 0 -0.034430132361592938 -0.00060948908513557649 0 -0.034479351013477433 7.459458583343192e-05 0 -0.035026129353888005 -0.00050630598192932179 0 -0.034717233211603256 -0.00025060813323138354 0 -0.034430132361592938 -0.00060948908513557649 0 -0.034430132361592938 -0.00060948908513557649 0 -0.034179034438215794 -7.0882352205685908e-06 0 -0.034479351013477433 7.459458583343192e-05 0 -0.034430132361592938 -0.00060948908513557649 0 -0.033945870327300051 -0.00016492392677480849 0 -0.034179034438215794 -7.0882352205685908e-06 0 -0.043087975275811138 -4.4555508101659287e-05 0 -0.042231495517534939 -0.0001697229927406446 0 -0.041658593466980337 0.00056078041707076885 0 -0.038736865642514114 -0.00033639320709331156 0 -0.037804098316460248 0.00015099894525477664 0 -0.043087975275811138 -4.4555508101659287e-05 0 -0.042231495517534939 -0.0001697229927406446 0 -0.043115950308347181 -0.00050095987571748685 0 -0.042231495517534939 -0.0001697229927406446 0 -0.040538629301008072 -0.00018791881617546293 0 -0.042267193771604858 -0.00039967613214013592 0 -0.042231495517534939 -0.0001697229927406446 0 -0.043115950308347181 -0.00050095987571748685 0 -0.042267193771604858 -0.00039967613214013592 0 -0.042231495517534939 -0.0001697229927406446 0 -0.041658593466980337 0.00056078041707076885 0 -0.040538629301008072 -0.00018791881617546293 0 -0.040538629301008072 -0.00018791881617546293 0 -0.038246999027971414 -6.6634782510933155e-07 0 -0.043145809640777771 -1.7168032564349973e-06 0 -0.041658593466980337 0.00056078041707076885 0 -0.040538629301008072 -0.00018791881617546293 0 -0.038902855881134478 0.00076247875057701376 0 -0.040538629301008072 -0.00018791881617546293 0 -0.038246999027971414 -6.6634782510933155e-07 0 -0.038902855881134478 0.00076247875057701376 0 -0.043145809640777771 -1.7168032564349973e-06 0 -0.043575670287655272 -0.00051660988557620038 0 -0.042267193771604858 -0.00039967613214013592 0 -0.040538629301008072 -0.00018791881617546293 0 -0.043145809640777771 -1.7168032564349973e-06 0 -0.042267193771604858 -0.00039967613214013592 0 -0.044971834238905939 -0.00039620046039619446 0 -0.043145809640777771 -1.7168032564349973e-06 0 -0.043575670287655272 -0.00051660988557620038 0 -0.044228236883533431 -0.00053446562866836403 0 -0.043575670287655272 -0.00051660988557620038 0 -0.043878483636636746 -0.0005068456187608657 0 -0.043575670287655272 -0.00051660988557620038 0 -0.043878483636636746 -0.0005068456187608657 0 -0.043435438379098218 -0.00054647048971789185 0 -0.043644172322399338 -0.00046176731460378288 0 -0.04