<?xml version="1.0"?>
<VTKFile type="UnstructuredGrid" version="0.1" byte_order="LittleEndian">
<UnstructuredGrid>
<Piece NumberOfPoints="30955" NumberOfCells="10810">
<Points>
<DataArray type="Float64" NumberOfComponents="3" format="ascii">
-0.50000000000000155 -0.48419765407264242 0 -0.48529676213839412 -0.47447408852495482 0 -0.47012831285000473 -0.50000000000000022 0 -0.5 -0.5 0 -0.50000000000000155 -0.48419765407264242 0 -0.47012831285000473 -0.50000000000000022 0 -0.50000000000000155 -0.48419765407264242 0 -0.48529676213839412 -0.47447408852495482 0 -0.5 -0.4669643512799645 0 -0.50000000000000155 -0.48419765407264242 0 -0.48529676213839412 -0.47447408852495482 0 -0.48529676213839412 -0.47447408852495482 0 -0.47012831285000473 -0.50000000000000022 0 -0.48529676213839412 -0.47447408852495482 0 -0.47012831285000473 -0.50000000000000022 0 -0.45780046482859882 -0.48158793016502399 0 -0.47012831285000473 -0.50000000000000022 0 -0.45780046482859882 -0.48158793016502399 0 -0.44080006507285319 -0.5 0 -0.48529676213839412 -0.47447408852495482 0 -0.45780046482859882 -0.48158793016502399 0 -0.46141025537886649 -0.45867743092017271 0 -0.45780046482859882 -0.48158793016502399 0 -0.46141025537886649 -0.45867743092017271 0 -0.43136692870287552 -0.47478813137999248 0 -0.45780046482859882 -0.48158793016502399 0 -0.44080006507285319 -0.5 0 -0.43136692870287552 -0.47478813137999248 0 -0.4375237486193394 -0.44288077331538978 0 -0.46141025537886649 -0.45867743092017271 0 -0.43136692870287552 -0.47478813137999248 0 -0.4375237486193394 -0.44288077331538978 0 -0.46141025537886649 -0.45867743092017271 0 -0.45468057226742697 -0.43239194474585302 0 -0.4375237486193394 -0.44288077331538978 0 -0.46141025537886649 -0.45867743092017271 0 -0.46141025537886649 -0.45867743092017271 0 -0.47591562671170878 -0.43484397156934512 0 -0.45468057226742697 -0.43239194474585302 0 -0.46141025537886649 -0.45867743092017271 0 -0.48063157609710488 -0.45411185987348668 0 -0.47591562671170878 -0.43484397156934512 0 -0.48529676213839412 -0.47447408852495482 0 -0.46141025537886649 -0.45867743092017271 0 -0.48529676213839412 -0.47447408852495482 0 -0.46141025537886649 -0.45867743092017271 0 -0.48063157609710488 -0.45411185987348668 0 -0.48529676213839412 -0.47447408852495482 0 -0.5 -0.4669643512799645 0 -0.50000000000000133 -0.44973104848728668 0 -0.48529676213839412 -0.47447408852495482 0 -0.50000000000000133 -0.44973104848728668 0 -0.48529676213839412 -0.47447408852495482 0 -0.48063157609710488 -0.45411185987348668 0 -0.50000000000000133 -0.44973104848728668 0 -0.48063157609710488 -0.45411185987348668 0 -0.50000000000000133 -0.44973104848728668 0 -0.47591562671170878 -0.43484397156934512 0 -0.5 -0.42184499613522619 0 -0.48205788583089482 -0.41184115531095228 0 -0.47591562671170878 -0.43484397156934512 0 -0.50000000000000133 -0.44973104848728668 0 -0.5 -0.42184499613522619 0 -0.47591562671170878 -0.43484397156934512 0 -0.5 -0.42184499613522619 0 -0.48205788583089482 -0.41184115531095228 0 -0.5 -0.39395894378316548 0 -0.48205788583089482 -0.41184115531095228 0 -0.47591021458970972 -0.39591588020800722 0 -0.45846358785305519 -0.41264198485901771 0 -0.48205788583089482 -0.41184115531095228 0 -0.47591562671170878 -0.43484397156934512 0 -0.45846358785305519 -0.41264198485901771 0 -0.5 -0.39395894378316548 0 -0.49601755043525658 -0.37136641777270429 0 -0.5 -0.366072891431105 0 -0.48496112833222899 -0.38358702294648611 0 -0.5 -0.39395894378316548 0 -0.49601755043525658 -0.37136641777270429 0 -0.48205788583089482 -0.41184115531095228 0 -0.5 -0.39395894378316548 0 -0.47591021458970972 -0.39591588020800722 0 -0.48496112833222899 -0.38358702294648611 0 -0.5 -0.39395894378316548 0 -0.47591021458970972 -0.39591588020800722 0 -0.48496112833222899 -0.38358702294648611 0 -0.49601755043525658 -0.37136641777270429 0 -0.46791674830395008 -0.37310685002206723 0 -0.48496112833222899 -0.38358702294648611 0 -0.47591021458970972 -0.39591588020800722 0 -0.46791674830395008 -0.37310685002206723 0 -0.47591021458970972 -0.39591588020800722 0 -0.44913976701284902 -0.39374463356522421 0 -0.46791674830395008 -0.37310685002206723 0 -0.47591021458970972 -0.39591588020800722 0 -0.44913976701284902 -0.39374463356522421 0 -0.45846358785305519 -0.41264198485901771 0 -0.44913976701284902 -0.39374463356522421 0 -0.45846358785305519 -0.41264198485901771 0 -0.43808339067803759 -0.40509706934297568 0 -0.44913976701284902 -0.39374463356522421 0 -0.43049320212552022 -0.3917009552439546 0 -0.43808339067803759 -0.40509706934297568 0 -0.44913976701284902 -0.39374463356522421 0 -0.45846358785305519 -0.41264198485901771 0 -0.44913976701284902 -0.39374463356522421 0 -0.43049320212552022 -0.3917009552439546 0 -0.43981594617264352 -0.37484728227143038 0 -0.44913976701284902 -0.39374463356522421 0 -0.43981594617264352 -0.37484728227143038 0 -0.44913976701284902 -0.39374463356522421 0 -0.46791674830395008 -0.37310685002206723 0 -0.43981594617264352 -0.37484728227143038 0 -0.47591562671170878 -0.43484397156934512 0 -0.45468057226742697 -0.43239194474585302 0 -0.45846358785305519 -0.41264198485901771 0 -0.43808339067803759 -0.40509706934297568 0 -0.45846358785305519 -0.41264198485901771 0 -0.43814845905252969 -0.42094374160725839 0 -0.45468057226742697 -0.43239194474585302 0 -0.45846358785305519 -0.41264198485901771 0 -0.43814845905252969 -0.42094374160725839 0 -0.4375237486193394 -0.44288077331538978 0 -0.45468057226742697 -0.43239194474585302 0 -0.43814845905252969 -0.42094374160725839 0 -0.4375237486193394 -0.44288077331538978 0 -0.43814845905252969 -0.42094374160725839 0 -0.40914920555733209 -0.43584403975397068 0 -0.43814845905252969 -0.42094374160725839 0 -0.41994998746064771 -0.40867837349177261 0 -0.40914920555733209 -0.43584403975397068 0 -0.43808339067803759 -0.40509706934297568 0 -0.43814845905252969 -0.42094374160725839 0 -0.41994998746064771 -0.40867837349177261 0 -0.41994998746064771 -0.40867837349177261 0 -0.40914920555733209 -0.43584403975397068 0 -0.39757998716618009 -0.41098979106061828 0 -0.42197019677101522 -0.3759525645202253 0 -0.43981594617264352 -0.37484728227143038 0 -0.42197019677101522 -0.3759525645202253 0 -0.43049320212552022 -0.3917009552439546 0 -0.43981594617264352 -0.37484728227143038 0 -0.43808339067803759 -0.40509706934297568 0 -0.41994998746064771 -0.40867837349177261 0 -0.43049320212552022 -0.3917009552439546 0 -0.41994998746064771 -0.40867837349177261 0 -0.43049320212552022 -0.3917009552439546 0 -0.41097559623883928 -0.39272568380870593 0 -0.41994998746064771 -0.40867837349177261 0 -0.41097559623883928 -0.39272568380870593 0 -0.39757998716618009 -0.41098979106061828 0 -0.42197019677101522 -0.3759525645202253 0 -0.43049320212552022 -0.3917009552439546 0 -0.41097559623883928 -0.39272568380870593 0 -0.42197019677101522 -0.3759525645202253 0 -0.40412444736938691 -0.3770578467690206 0 -0.42197019677101522 -0.3759525645202253 0 -0.41097559623883928 -0.39272568380870593 0 -0.40412444736938691 -0.3770578467690206 0 -0.40412444736938691 -0.3770578467690206 0 -0.39173575654028592 -0.39197457176664441 0 -0.38771503938706481 -0.37552736051368879 0 -0.41097559623883928 -0.39272568380870593 0 -0.40412444736938691 -0.3770578467690206 0 -0.39173575654028592 -0.39197457176664441 0 -0.41097559623883928 -0.39272568380870593 0 -0.39173575654028592 -0.39197457176664441 0 -0.39757998716618009 -0.41098979106061828 0 -0.39173575654028592 -0.39197457176664441 0 -0.37940075384634131 -0.40151396220611058 0 -0.39757998716618009 -0.41098979106061828 0 -0.39173575654028592 -0.39197457176664441 0 -0.37940075384634131 -0.40151396220611058 0 -0.3700505658508601 -0.37568717651397893 0 -0.39173575654028592 -0.39197457176664441 0 -0.38771503938706481 -0.37552736051368879 0 -0.3700505658508601 -0.37568717651397893 0 -0.39173575654028592 -0.39197457176664441 0 -0.3700505658508601 -0.37568717651397893 0 -0.40914920555733209 -0.43584403975397068 0 -0.39111072328872643 -0.42895821874839501 0 -0.39757998716618009 -0.41098979106061828 0 -0.40914920555733209 -0.43584403975397068 0 -0.39111072328872643 -0.42895821874839501 0 -0.38148716114152592 -0.44514799216385048 0 -0.39111072328872643 -0.42895821874839501 0 -0.39757998716618009 -0.41098979106061828 0 -0.37785700489956442 -0.41751623481388561 0 -0.37940075384634131 -0.40151396220611058 0 -0.39757998716618009 -0.41098979106061828 0 -0.37785700489956442 -0.41751623481388561 0 -0.39111072328872643 -0.42895821874839501 0 -0.37785700489956442 -0.41751623481388561 0 -0.38148716114152592 -0.44514799216385048 0 -0.40914920555733209 -0.43584403975397068 0 -0.38148716114152592 -0.44514799216385048 0 -0.40880877088152701 -0.45821652930294149 0 -0.38148716114152592 -0.44514799216385048 0 -0.38598305583002801 -0.47018257414951709 0 -0.40880877088152701 -0.45821652930294149 0 -0.38148716114152592 -0.44514799216385048 0 -0.38598305583002801 -0.47018257414951709 0 -0.36100807999382573 -0.47003272482440478 0 -0.38598305583002801 -0.47018257414951709 0 -0.38214356951855022 -0.5 0 -0.36100807999382573 -0.47003272482440478 0 -0.38214356951855022 -0.5 0 -0.40395482844573638 -0.48063744696649019 0 -0.4114718172957017 -0.5 0 -0.38598305583002801 -0.47018257414951709 0 -0.38214356951855022 -0.5 0 -0.40395482844573638 -0.48063744696649019 0 -0.38598305583002801 -0.47018257414951709 0 -0.40395482844573638 -0.48063744696649019 0 -0.40880877088152701 -0.45821652930294149 0 -0.40395482844573638 -0.48063744696649019 0 -0.43136692870287552 -0.47478813137999248 0 -0.40880877088152701 -0.45821652930294149 0 -0.40395482844573638 -0.48063744696649019 0 -0.4114718172957017 -0.5 0 -0.43136692870287552 -0.47478813137999248 0 -0.44080006507285319 -0.5 0 -0.4114718172957017 -0.5 0 -0.43136692870287552 -0.47478813137999248 0 -0.4375237486193394 -0.44288077331538978 0 -0.43136692870287552 -0.47478813137999248 0 -0.40880877088152701 -0.45821652930294149 0 -0.4375237486193394 -0.44288077331538978 0 -0.40914920555733209 -0.43584403975397068 0 -0.40880877088152701 -0.45821652930294149 0 -0.44089724879962422 -
[...]
<PointData Scalars="" Vectors="displacement," Tensors="">
<DataArray type="Float64" Name="displacement" NumberOfComponents="3" format="ascii">
4.8480987871577634e-07 -0.053269315319755088 0 0.00061274751966280147 -0.054019796742698613 0 -4.9016240257883327e-07 -0.055002154279251064 0 -1.1483076702122972e-09 -0.054995122537924691 0 4.8480987871577634e-07 -0.053269315319755088 0 -4.9016240257883327e-07 -0.055002154279251064 0 -8.7347657204895325e-10 -0.053259319733940803 0 -7.1769533981729993e-07 -0.052190591433736937 0 -8.9675863210294862e-10 -0.05136607838112308 0 5.5338658595922872e-07 -0.053262238821932172 0 -2.2060966226449679e-05 -0.052204669359209074 0 -2.2060966226449679e-05 -0.052204669359209074 0 -8.9461010328647776e-07 -0.055001930127414181 0 -0.00024342788342455234 -0.054884797825833866 0 5.8079329597787549e-08 -0.054999525234529084 0 -0.00011378608125755111 -0.054556328288074787 0 5.8079329597787549e-08 -0.054999525234529084 0 -0.00011378608125755111 -0.054556328288074787 0 1.0559280269292844e-07 -0.054998665505206192 0 -0.00024342788342455234 -0.054884797825833866 0 -0.00011378608125755111 -0.054556328288074787 0 -0.00053665088666165323 -0.054148353293844292 0 -0.00011378608125755111 -0.054556328288074787 0 -0.00053665088666165323 -0.054148353293844292 0 -0.00021505100907519487 -0.053660187357730892 0 -0.00011378608125755111 -0.054556328288074787 0 1.0559280269292844e-07 -0.054998665505206192 0 -0.00021505100907519487 -0.053660187357730892 0 -0.00084403301191942432 -0.051574439091681204 0 -0.00053665088666165323 -0.054148353293844292 0 -0.00021505100907519487 -0.053660187357730892 0 -0.00084403301191942432 -0.051574439091681204 0 -0.0010918044473098565 -0.048652572080520616 0 -0.00039156235519874648 -0.049149084009569174 0 -0.00074726805790824378 -0.051703025034908423 0 -0.00079344496579601535 -0.051371698449081564 0 -0.0010918044473098565 -0.048652572080520616 0 -0.00056315048218875431 -0.04777694163996344 0 -0.00039156235519874648 -0.049149084009569174 0 -0.0010918044473098565 -0.048652572080520616 0 -0.00041445514380840441 -0.048473385501761564 0 -0.00056315048218875431 -0.04777694163996344 0 -2.2060966226449679e-05 -0.052204669359209074 0 -0.00079344496579601535 -0.051371698449081564 0 -0.00012610268968509057 -0.048568135579283911 0 -0.0010918044473098565 -0.048652572080520616 0 -0.00041445514380840441 -0.048473385501761564 0 -7.1769533981729993e-07 -0.052190591433736937 0 -8.9675863210294862e-10 -0.05136607838112308 0 -5.7908777337413176e-10 -0.049472836817540077 0 -2.2060966226449679e-05 -0.052204669359209074 0 2.1616429348232786e-07 -0.04946945471088305 0 -0.00012610268968509057 -0.048568135579283911 0 -0.00041445514380840441 -0.048473385501761564 0 -1.7665986387855105e-06 -0.049464127496832419 0 -0.00041445514380840441 -0.048473385501761564 0 -1.7665986387855105e-06 -0.049464127496832419 0 -0.00056315048218875431 -0.04777694163996344 0 -6.5278243353369962e-07 -0.046405004309907932 0 -0.00017813125866578133 -0.046280817074724666 0 -0.00056315048218875431 -0.04777694163996344 0 -1.7665986387855105e-06 -0.049464127496832419 0 -6.5278243353369962e-07 -0.046405004309907932 0 -0.00056315048218875431 -0.04777694163996344 0 -6.5278243353369962e-07 -0.046405004309907932 0 -0.00017813125866578133 -0.046280817074724666 0 -1.9618082328261395e-08 -0.043336349283200334 0 -0.00017813125866578133 -0.046280817074724666 0 0.00012431158786038493 -0.045833595583354259 0 1.7016614991726003e-05 -0.048221085635226972 0 -0.00017813125866578133 -0.046280817074724666 0 -0.00056315048218875431 -0.04777694163996344 0 1.7016614991726003e-05 -0.048221085635226972 0 -1.9618082328261395e-08 -0.043336349283200334 0 0.00025897296114078469 -0.041106319922733829 0 1.8103909807851178e-06 -0.040268647909618989 0 0.00038646533019693838 -0.043898404184823367 0 -1.9618082328261395e-08 -0.043336349283200334 0 0.00025897296114078469 -0.041106319922733829 0 -0.00017813125866578133 -0.046280817074724666 0 -1.9618082328261395e-08 -0.043336349283200334 0 0.00012431158786038493 -0.045833595583354259 0 0.00038646533019693838 -0.043898404184823367 0 -1.9618082328261395e-08 -0.043336349283200334 0 0.00012431158786038493 -0.045833595583354259 0 0.00038646533019693838 -0.043898404184823367 0 0.00025897296114078469 -0.041106319922733829 0 0.001930936025991208 -0.046281059320239647 0 0.00038646533019693838 -0.043898404184823367 0 0.00012431158786038493 -0.045833595583354259 0 0.001930936025991208 -0.046281059320239647 0 0.00012431158786038493 -0.045833595583354259 0 0.00050982009249739486 -0.048026872375257733 0 0.001930936025991208 -0.046281059320239647 0 0.00012431158786038493 -0.045833595583354259 0 0.00050982009249739486 -0.048026872375257733 0 1.7016614991726003e-05 -0.048221085635226972 0 0.00097982626266156789 -0.049129900778048623 0 -0.00018890778221984037 -0.048171390173904628 0 0.00048979124381538059 -0.050039016139889564 0 0.00079532190528993577 -0.049601639289007099 0 0.00058311646993972153 -0.050009628354076893 0 0.00048979124381538059 -0.050039016139889564 0 0.00079532190528993577 -0.049601639289007099 0 1.7016614991726003e-05 -0.048221085635226972 0 0.00079532190528993577 -0.049601639289007099 0 0.00058311646993972153 -0.050009628354076893 0 0.00038666201058266524 -0.049971141232785267 0 0.00097982626266156789 -0.049129900778048623 0 -2.354805012783722e-05 -0.046078083579110835 0 0.00050982009249739486 -0.048026872375257733 0 0.001930936025991208 -0.046281059320239647 0 0.0019179710137809073 -0.048653326228211571 0 -0.00056315048218875431 -0.04777694163996344 0 -0.00039156235519874648 -0.049149084009569174 0 1.7016614991726003e-05 -0.048221085635226972 0 0.00048979124381538059 -0.050039016139889564 0 1.7016614991726003e-05 -0.048221085635226972 0 6.1455241523534815e-06 -0.050346203563299712 0 -0.00039156235519874648 -0.049149084009569174 0 1.7016614991726003e-05 -0.048221085635226972 0 6.1455241523534815e-06 -0.050346203563299712 0 -0.00084403301191942432 -0.051574439091681204 0 -0.00039156235519874648 -0.049149084009569174 0 6.1455241523534815e-06 -0.050346203563299712 0 -0.00084403301191942432 -0.051574439091681204 0 6.1455241523534815e-06 -0.050346203563299712 0 -0.00026560632694445468 -0.051889154070220676 0 6.1455241523534815e-06 -0.050346203563299712 0 0.00045912598002459534 -0.050377353348201613 0 -0.00026560632694445468 -0.051889154070220676 0 0.00048979124381538059 -0.050039016139889564 0 6.1455241523534815e-06 -0.050346203563299712 0 0.00045912598002459534 -0.050377353348201613 0 0.00045912598002459534 -0.050377353348201613 0 -0.00026560632694445468 -0.051889154070220676 0 0.00033266750886057404 -0.050667864181142233 0 -0.00034349499626601149 -0.048343607867916048 0 -2.354805012783722e-05 -0.046078083579110835 0 -8.8331521843397946e-06 -0.049743027014535299 0 0.00058311646993972153 -0.050009628354076893 0 0.00038666201058266524 -0.049971141232785267 0 0.00048979124381538059 -0.050039016139889564 0 0.00045912598002459534 -0.050377353348201613 0 0.00058311646993972153 -0.050009628354076893 0 0.00045912598002459534 -0.050377353348201613 0 0.00058311646993972153 -0.050009628354076893 0 0.00064389636886605752 -0.049522905238080978 0 0.00045912598002459534 -0.050377353348201613 0 0.00064389636886605752 -0.049522905238080978 0 0.00033266750886057404 -0.050667864181142233 0 -8.8331521843397946e-06 -0.049743027014535299 0 0.00058311646993972153 -0.050009628354076893 0 0.00064389636886605752 -0.049522905238080978 0 -0.00034349499626601149 -0.048343607867916048 0 -0.0003593080649355904 -0.047655815445291488 0 -8.8331521843397946e-06 -0.049743027014535299 0 0.00064389636886605752 -0.049522905238080978 0 -0.00038585556079533535 -0.047829518826245608 0 -0.00038585556079533535 -0.047829518826245608 0 0.0008524199338432783 -0.049156558180231402 0 -0.00030158640083665928 -0.047072065120086763 0 0.00064389636886605752 -0.049522905238080978 0 -0.00038585556079533535 -0.047829518826245608 0 0.0008524199338432783 -0.049156558180231402 0 0.00064389636886605752 -0.049522905238080978 0 0.0008524199338432783 -0.049156558180231402 0 0.00033266750886057404 -0.050667864181142233 0 0.0008524199338432783 -0.049156558180231402 0 0.00040767382310457647 -0.051150217152397343 0 0.00033266750886057404 -0.050667864181142233 0 0.0008524199338432783 -0.049156558180231402 0 0.00040767382310457647 -0.051150217152397343 0 0.0017928572016524453 -0.052045774049883316 0 0.0008524199338432783 -0.049156558180231402 0 -0.00030158640083665928 -0.047072065120086763 0 -0.00031094484018353154 -0.045260134167743042 0 0.00079772423558517852 -0.049000681477196995 0 0.00066434019760635578 -0.048644014906302963 0 -0.00026560632694445468 -0.051889154070220676 0 -0.00012423000829752995 -0.051934867818430236 0 0.00033266750886057404 -0.050667864181142233 0 -0.00026560632694445468 -0.051889154070220676 0 -0.00012423000829752995 -0.051934867818430236 0 -0.00028154541329365225 -0.052890233815879664 0 -0.00012423000829752995 -0.051934867818430236 0 0.00033266750886057404 -0.050667864181142233 0 6.4771277038273216e-05 -0.051943335169142409 0 0.00040767382310457647 -0.051150217152397343 0 0.00033266750886057404 -0.050667864181142233 0 6.4771277038273216e-05 -0.051943335169142409 0 -0.00012423000829752995 -0.051934867818430236 0 6.4771277038273216e-05 -0.051943335169142409 0 -0.00028154541329365225 -0.052890233815879664 0 -0.00026560632694445468 -0.051889154070220676 0 -0.00028154541329365225 -0.052890233815879664 0 -0.0004126213309101154 -0.052936959321500755 0 -0.00028154541329365225 -0.052890233815879664 0 -0.0002729021421928674 -0.053799259521449455 0 -0.0004126213309101154 -0.052936959321500755 0 -0.00028154541329365225 -0.052890233815879664 0 -0.0002729021421928674 -0.053799259521449455 0 -0.00024329899004295617 -0.054081496274477892 0 -0.0002729021421928674 -0.053799259521449455 0 -2.7883652140543106e-07 -0.054998811315960829 0 -0.00024329899004295617 -0.054081496274477892 0 -2.7883652140543106e-07 -0.054998811315960829 0 -0.00020469884925734464 -0.054089759119606513 0 -2.3602204499269209e-07 -0.054998510086108149 0 -0.0002729021421928674 -0.053799259521449455 0 -2.7883652140543106e-07 -0.054998811315960829 0 -0.00020469884925734464 -0.054089759119606513 0 -0.0002729021421928674 -0.053799259521449455 0 -0.00020469884925734464 -0.054089759119606513 0 -0.0004126213309101154 -0.052936959321500755 0 -0.00020469884925734464 -0.054089759119606513 0 -0.00021505100907519487 -0.053660187357730892 0 -0.0004126213309101154 -0.052936959321500755 0 -0.00020469884925734464 -0.054089759119606513 0 -2.3602204499269209e-07 -0.054998510086108149 0 -0.00021505100907519487 -0.053660187357730892 0 1.0559280269292844e-07 -0.054998665505206192 0 -2.3602204499269209e-07 -0.054998510086108149 0 -0.00021505100907519487 -0.053660187357730892 0 -0.00084403301191942432 -0.051574439091681204 0 -0.00021505100907519487 -0.053660187357730892 0 -0.0004126213309101154 -0.052936959321500755 0 -0.00084403301191942432 -0.051574439091681204 0 -0.00026560632694445468 -0.051889154070220676 0 -0.0004126213309101154 -0.052936959321500755 0 0.0019738079908818858 -0.036494338168784606 0 0.0010242501446663728 -0.036420894907939851 0 0.0012969966056199254 -0.0346661919784804 0 0.0019738079908818858 -0.036494338168784606 0 0.0012969966056199254 -0.0346661919784804 0 0.0024937777639139746 -0.035017910573063249 0 0.0019738079908818858 -0.036494338168784606 0 0.0010242501446663728 -0.036420894907939851 0 0.0017821757466222733 -0.038000950470505682 0 0.0010242501446663728 -0.036420894907939851 0 0.00039647605416538137 -0.036161045288380086 0 0.00050993634224033352 -0.037471510838986505 0 0.0010242501446663728 -0.036420894907939851 0 0.00039647605416538137 -0.036161045288380086 0 0.00035425430719321192 -0.034607703593892904 0 0.0010242501446663728 -0.036420894907939851 0 0.00035425430719321192 -0.034607703593892904 0 0.0012969966056199254 -0.0346661919784804 0 0.00035425430719321192 -0.034607703593892904 0 0.0012969966056199254 -0.0346661919784804 0 0.00040579013038081693 -0.03171770073180407 0 0.0012969966056199254 -0.0346661919784804 0 0.00040579013038081693 -0.03171770073180407 0 0.0017824769790554037 -0.033172614175065958 0 0.0012969966056199254 -0.0346661919784804 0 0.0017824769790554037 -0.033172614175065958 0 0.0024937777639139746 -0.035017910573063249 0 0.00040579013038081693 -0.03171770073180407 0 0.0014060056207482613 -0.03130825026086486 0 0.0017824769790554037 -0.033172614175065958 0 0.00040579013038081693 -0.03171770073180407 0 0.000798934320276654 -0.029535306488981776 0 0.0014060056207482613 -0.03130825026086486 0 0.00040579013038081693 -0.03171770073180407 0 -2.5266640124389082e-07 -0.027999479060217634 0 0.000798934320276654 -0.029535306488981776 0 0.00040579013038081693 -0.03171770073180407 0 -4.4587175795245648e-05 -0.032909923162455987 0 -4.3965107649300286e-07 -0.031066424125866736 0 0.00040579013038081693 -0.03171770073180407 0 -2.5266640124389082e-07 -0.027999479060217634 0 -4.3965107649300286e-07 -0.031066424125866736 0 0.00035425430719321192 -0.034607703593892904 0 0.00040579013038081693 -0.03171770073180407 0 -4.4587175795245648e-05 -0.032909923162455987 0 -0.00043282439373103215 -0.033454671750192608 0 -4.4587175795245648e-05 -0.032909923162455987 0 -0.00048092479241246863 -0.034579352380942285 0 -0.00043282439373103215 -0.033454671750192608 0 -4.4587175795245648e-05 -0.032909923162455987 0 -4.3965107649300286e-07 -0.031066424125866736 0 -0.00043282439373103215 -0.033454671750192608 0 -4.3965107649300286e-07 -0.031066424125866736 0 -1.4562560476997922e-06 -0.034133062680962244 0 -0.00043282439373103215 -0.033454671750192608 0 -1.4562560476997922e-06 -0.034133062680962244 0 -0.00097377638994525554 -0.034918549989396329 0 -0.00043282439373103215 -0.033454671750192608 0 -0.00048092479241246863 -0.034579352380942285 0 -0.00097377638994525554 -0.034918549989396329 0 -0.00048092479241246863 -0.034579352380942285 0 -0.00024711888359401621 -0.036166773994813411 0 -0.0010634444425477582 -0.036161489126797515 0 -0.00048092479241246863 -0.034579352380942285 0 -0.0010634444425477582 -0.036161489126797515 0 -0.00097377638994525554 -0.034918549989396329 0 0.00035425430719321192 -0.034607703593892904 0 -0.00048092479241246863 -0.034579352380942285 0 -0.00024711888359401621 -0.036166773994813411 0 0.00035425430719321192 -0.034607703593892904 0 -4.4587175795245648e-05 -0.032909923162455987 0 -0.00048092479241246863 -0.034579352380942285 0 0.00039647605416538137 -0.036161045288380086 0 0.00035425430719321192 -0.034607703593892904 0 -0.00024711888359401621 -0.036166773994813411 0 0.00039647605416538137 -0.036161045288380086 0 -0.00024711888359401621 -0.036166773994813411 0 0.00050993634224033352 -0.037471510838986505 0 -0.00024711888359401621 -0.036166773994813411 0 -7.0817268153114822e-05 -0.037966822306588294 0 0.00050993634224033352 -0.037471510838986505 0 -0.00024711888359401621 -0.036166773994813411 0 -0.00068669399289717934 -0.037823348709428786 0 -7.0817268153114822e-05 -0.037966822306588294 0 -0.00024711888359401621 -0.036166773994813411 0 -0.0010634444425477582 -0.036161489126797515 0 -0.00068669399289717934 -0.037823348709428786 0 -0.0010634444425477582 -0.036161489126797515 0 -0.0012973706246280771 -0.038043526175692371 0 -0.00068669399289717934 -0.037823348709428786 0 -0.0010634444425477582 -0.036161489126797515 0 -0.0023604911468787901 -0.036617212033237749 0 -0.0012973706246280771 -0.038043526175692371 0 -0.00074629333187965731 -0.041398075688641345 0 -0.00056248966369928498 -0.041113679751433464 0 -0.00079939432462741852 -0.041319754698098586 0 -0.0023604911468787901 -0.036617212033237749 0 -0.00097377638994525554 -0.034918549989396329 0 -0.00098432938409984214 -0.03547612619068085 0 -0.001509868485643421 -0.039102500794725013 0 -0.00060381801228936354 -0.038161800130614917 0 -0.00074629333187965731 -0.041398075688641345 0 -0.00012052335310122495 -0.040768496151582949 0 -0.00056248966369928498 -0.041113679751433464 0 -0.0010634444425477582 -0.036161489126797515 0 -0.0023604911468787901 -0.036617212033237749 0 -0.00097377638994525554 -0.034918549989396329 0 -0.00097377638994525554 -0.034918549989396329 0 -0.00068868179060939839 -0.035507481065913421 0 -0.00098432938409984214 -0.03547612619068085 0 -1.4562560476997922e-06 -0.034133062680962244 0 -0.00068868179060939839 -0.035507481065913421 0 -1.2032311113276699e-06 -0.037200394345602364 0 -1.4562560476997922e-06 -0.034133062680962244 0 -0.00097377638994525554 -0.034918549989396329 0 -0.00068868179060939839 -0.035507481065913421 0 -0.00068868179060939839 -0.035507481065913421 0 -1.2032311113276699e-06 -0.037200394345602364 0 -0.00098432938409984214 -0.03547612619068085 0 -0.00060381801228936354 -0.038161800130614917 0 1.7181338574873568e-05 -0.038582811346177158 0 -0.00012052335310122495 -0.040768496151582949 0 0.00010336770577762379 -0.038679540742166195 0 -0.00040961370903941504 -0.040099622429184044 0 -0.00012052335310122495 -0.040768496151582949 0 -0.00040961370903941504 -0.040099622429184044 0 -0.00069951743641155889 -0.040431786585287406 0 -1.2032311113276699e-06 -0.037200394345602364 0 0.00010336770577762379 -0.038679540742166195 0 1.8103909807851178e-06 -0.040268647909618989 0 -1.2032311113276699e-06 -0.037200394345602364 0 -0.00098432938409984214 -0.03547612619068085 0 0.00010336770577762379 -0.038679540742166195 0 0.00025897296114078469 -0.041106319922733829 0 1.8103909807851178e-06 -0.040268647909618989 0 -0.00040961370903941504 -0.040099622429184044 0 0.00010336770577762379 -0.038679540742166195 0 1.8103909807851178e-06 -0.040268647909618989 0 -0.00040961370903941504 -0.040099622429184044 0 0.00025897296114078469 -0.041106319922733829 0 -0.00040961370903941504 -0.040099622429184044 0 -0.00069951743641155889 -0.040431786585287406 0 0.00030905472051706313 -0.041508504195781483 0 0.0006461947914541018 -0.043108130000285967 0 -0.00012052335310122495 -0.040768496151582949 0 -0.00069951743641155889 -0.040431786585287406 0 -0.00056248966369928498 -0.041113679751433464 0 0.0006461947914541018 -0.043108130000285967 0 -2.354805012783722e-05 -0.046078083579110835 0 -0.00056248966369928498 -0.041113679751433464 0 -0.00085592756997859376 -0.041235837356817732 0 -0.00079939432462741852 -0.041319754698098586 0 -0.00069951743641155889 -0.040431786585287406 0 -0.00056248966369928498 -0.041113679751433464 0 -0.00085592756997859376 -0.041235837356817732 0 -2.354805012783722e-05 -0.046078083579110835 0 -0.00107825673816505 -0.043132242771780238 0 -0.00068430400004786801 -0.046293127395510857 0 -0.00070272410152732545 -0.046365562297558484 0 -0.0010087904236747739 -0.045827015118593634 0 -0.0010087904236747739 -0.045827015118593634 0 -0.00075183544118835165 -0.046019231706791945 0 -0.0013029769803509317 -0.044631320621894614 0 -0.00068430400004786801 -0.046293127395510857 0 -0.00038585556079533535 -0.047829518826245608 0 -0.00075183544118835165 -0.046019231706791945 0 -0.00068430400004786801 -0.046293127395510857 0 -0.0010087904236747739 -0.045827015118593634 0 -0.00075183544118835165 -0.046019231706791945 0 -0.00038585556079533535 -0.047829518826245608 0 -0.00075183544118835165 -0.046019231706791945 0 -0.0009828403153664643 -0.046024320351957894 0 -0.00038585556079533535 -0.047829518826245608 0 -0.00030158640083665928 -0.047072065120086763 0 -0.0009828403153664643 -0.046024320351957894 0 -0.0009828403153664643 -0.046024320351957894 0 -0.0013265600504739237 -0.044768494776598909 0 -0.00031094484018353154 -0.045260134167743042 0 -0.00030158640083665928 -0.047072065120086763 0 -0.0009828403153664643 -0.046024320351957894 0 -0.00031094484018353154 -0.045260134167743042 0 -0.0009828403153664643 -0.046024320351957894 0 -0.0013471192558228312 -0.04493377978073506 0 -0.0013265600504739237 -0.044768494776598909 0 -0.00075183544118835165 -0.046019231706791945 0 -0.0012684785776778181 -0.04496285765243855 0 -0.0013029769803509317 -0.044631320621894614 0 -0.0009828403153664643 -0.046024320351957894 0 -0.0013471192558228312 -0.04493377978073506 0 -0.0012684785776778181 -0.0449628576