<?xml version="1.0"?>
<VTKFile type="UnstructuredGrid" version="0.1" byte_order="LittleEndian">
<UnstructuredGrid>
<Piece NumberOfPoints="31002" NumberOfCells="10847">
<Points>
<DataArray type="Float64" NumberOfComponents="3" format="ascii">
-0.5 -0.5 0 -0.45802146411496319 -0.5 0 -0.46178617188117471 -0.48424543195202041 0 -0.5 -0.5 0 -0.46366691945790539 -0.46815685751249869 0 -0.48061956738142891 -0.45675328945400201 0 -0.5 -0.5 0 -0.46178617188117471 -0.48424543195202041 0 -0.46366691945790539 -0.46815685751249869 0 -0.45802146411496319 -0.5 0 -0.42013097034131841 -0.48125940074394669 0 -0.43646961398279999 -0.47769663466773149 0 -0.45802146411496319 -0.5 0 -0.46178617188117471 -0.48424543195202041 0 -0.44722767418719328 -0.47714405294243772 0 -0.46178617188117471 -0.48424543195202041 0 -0.45547268855692202 -0.47269690141331749 0 -0.46366691945790539 -0.46815685751249869 0 -0.46178617188117471 -0.48424543195202041 0 -0.45547268855692202 -0.47269690141331749 0 -0.44722767418719328 -0.47714405294243772 0 -0.44722767418719328 -0.47714405294243772 0 -0.4521977597996284 -0.46392009901639331 0 -0.45547268855692202 -0.47269690141331749 0 -0.44722767418719328 -0.47714405294243772 0 -0.4521977597996284 -0.46392009901639331 0 -0.44722767418719328 -0.47714405294243772 0 -0.43958292197969823 -0.46719442692057178 0 -0.4521977597996284 -0.46392009901639331 0 -0.44722767418719328 -0.47714405294243772 0 -0.43958292197969823 -0.46719442692057178 0 -0.43646961398279999 -0.47769663466773149 0 -0.45802146411496319 -0.5 0 -0.44722767418719328 -0.47714405294243772 0 -0.43646961398279999 -0.47769663466773149 0 -0.44392128430186661 -0.44390884267885261 0 -0.4521977597996284 -0.46392009901639331 0 -0.46065789009920832 -0.4414101500911547 0 -0.4521977597996284 -0.46392009901639331 0 -0.43083425004616999 -0.45602832366828228 0 -0.44392128430186661 -0.44390884267885261 0 -0.4521977597996284 -0.46392009901639331 0 -0.43083425004616999 -0.45602832366828228 0 -0.43958292197969823 -0.46719442692057178 0 -0.4521977597996284 -0.46392009901639331 0 -0.43083425004616999 -0.45602832366828228 0 -0.4521977597996284 -0.46392009901639331 0 -0.46619396810428537 -0.4543299491934979 0 -0.46065789009920832 -0.4414101500911547 0 -0.4521977597996284 -0.46392009901639331 0 -0.46366691945790539 -0.46815685751249869 0 -0.45547268855692202 -0.47269690141331749 0 -0.4521977597996284 -0.46392009901639331 0 -0.46366691945790539 -0.46815685751249869 0 -0.4521977597996284 -0.46392009901639331 0 -0.46366691945790539 -0.46815685751249869 0 -0.46619396810428537 -0.4543299491934979 0 -0.4521977597996284 -0.46392009901639331 0 -0.46065789009920832 -0.4414101500911547 0 -0.46619396810428537 -0.4543299491934979 0 -0.46065789009920832 -0.4414101500911547 0 -0.47597249352963727 -0.43906994342109817 0 -0.5 -0.5 0 -0.48061956738142891 -0.45675328945400201 0 -0.5 -0.44200523207008402 0 -0.46619396810428537 -0.4543299491934979 0 -0.47597249352963727 -0.43906994342109817 0 -0.48061956738142891 -0.45675328945400201 0 -0.46366691945790539 -0.46815685751249869 0 -0.46619396810428537 -0.4543299491934979 0 -0.48061956738142891 -0.45675328945400201 0 -0.47597249352963727 -0.43906994342109817 0 -0.48061956738142891 -0.45675328945400201 0 -0.5 -0.44200523207008402 0 -0.47597249352963727 -0.43906994342109817 0 -0.5 -0.44200523207008402 0 -0.48656209664721151 -0.4251734688775175 0 -0.5 -0.44200523207008402 0 -0.48656209664721151 -0.4251734688775175 0 -0.5 -0.39740608889335671 0 -0.48656209664721151 -0.4251734688775175 0 -0.48303612299557541 -0.41067757196551319 0 -0.5 -0.39740608889335671 0 -0.48303612299557541 -0.41067757196551319 0 -0.46911802039878869 -0.4189002011659162 0 -0.47941201359919311 -0.39151087582782168 0 -0.46911802039878869 -0.4189002011659162 0 -0.47941201359919311 -0.39151087582782168 0 -0.46703483823831698 -0.40991255894124801 0 -0.48656209664721151 -0.4251734688775175 0 -0.47889759094407031 -0.41943550768263371 0 -0.48303612299557541 -0.41067757196551319 0 -0.47889759094407031 -0.41943550768263371 0 -0.48303612299557541 -0.41067757196551319 0 -0.46911802039878869 -0.4189002011659162 0 -0.47889759094407031 -0.41943550768263371 0 -0.46911802039878869 -0.4189002011659162 0 -0.47036008233246068 -0.4242589299859591 0 -0.46911802039878869 -0.4189002011659162 0 -0.47036008233246068 -0.4242589299859591 0 -0.47597249352963727 -0.43906994342109817 0 -0.48656209664721151 -0.4251734688775175 0 -0.47036008233246068 -0.4242589299859591 0 -0.46065789009920832 -0.4414101500911547 0 -0.47597249352963727 -0.43906994342109817 0 -0.47036008233246068 -0.4242589299859591 0 -0.48656209664721151 -0.4251734688775175 0 -0.47889759094407031 -0.41943550768263371 0 -0.47036008233246068 -0.4242589299859591 0 -0.5 -0.39740608889335671 0 -0.47941201359919311 -0.39151087582782168 0 -0.48970600679959769 -0.36412155048972739 0 -0.47941201359919311 -0.39151087582782168 0 -0.48970600679959769 -0.36412155048972739 0 -0.48303612299557541 -0.41067757196551319 0 -0.5 -0.39740608889335671 0 -0.47941201359919311 -0.39151087582782168 0 -0.46911802039878869 -0.4189002011659162 0 -0.47941201359919311 -0.39151087582782168 0 -0.47941201359919311 -0.39151087582782168 0 -0.46261568863045782 -0.39084666236899301 0 -0.46703483823831698 -0.40991255894124801 0 -0.47941201359919311 -0.39151087582782168 0 -0.47163279485172199 -0.38377214775026602 0 -0.46261568863045782 -0.39084666236899301 0 -0.47941201359919311 -0.39151087582782168 0 -0.47163279485172199 -0.38377214775026602 0 -0.47712899726058883 -0.37534367264174778 0 -0.47941201359919311 -0.39151087582782168 0 -0.47712899726058883 -0.37534367264174778 0 -0.48970600679959769 -0.36412155048972739 0 -0.47163279485172199 -0.38377214775026602 0 -0.47712899726058883 -0.37534367264174778 0 -0.46244189021068383 -0.38054936169290071 0 -0.46244189021068383 -0.38054936169290071 0 -0.46261568863045782 -0.39084666236899301 0 -0.45611335686212467 -0.36279312357207039 0 -0.46261568863045782 -0.39084666236899301 0 -0.45083040071879349 -0.38184354713161489 0 -0.45611335686212467 -0.36279312357207039 0 -0.46261568863045782 -0.39084666236899301 0 -0.45611335686212467 -0.36279312357207039 0 -0.47163279485172199 -0.38377214775026602 0 -0.46244189021068383 -0.38054936169290071 0 -0.46261568863045782 -0.39084666236899301 0 -0.4548205037317371 -0.3930157176714062 0 -0.46261568863045782 -0.39084666236899301 0 -0.45083040071879349 -0.38184354713161489 0 -0.4548205037317371 -0.3930157176714062 0 -0.46105080410611882 -0.40398645205652978 0 -0.4447851214715785 -0.39538620912848732 0 -0.46261568863045782 -0.39084666236899301 0 -0.46105080410611882 -0.40398645205652978 0 -0.46703483823831698 -0.40991255894124801 0 -0.46261568863045782 -0.39084666236899301 0 -0.46703483823831698 -0.40991255894124801 0 -0.4548205037317371 -0.3930157176714062 0 -0.46261568863045782 -0.39084666236899301 0 -0.46105080410611882 -0.40398645205652978 0 -0.46105080410611882 -0.40398645205652978 0 -0.4447851214715785 -0.39538620912848732 0 -0.43391045102568099 -0.410227979665794 0 -0.4447851214715785 -0.39538620912848732 0 -0.45083040071879349 -0.38184354713161489 0 -0.43796197263147779 -0.37447112190649823 0 -0.4447851214715785 -0.39538620912848732 0 -0.43048958518223168 -0.39536869997562413 0 -0.43796197263147779 -0.37447112190649823 0 -0.4548205037317371 -0.3930157176714062 0 -0.4447851214715785 -0.39538620912848732 0 -0.45083040071879349 -0.38184354713161489 0 -0.46065789009920832 -0.4414101500911547 0 -0.46911802039878869 -0.4189002011659162 0 -0.47036008233246068 -0.4242589299859591 0 -0.46065789009920832 -0.4414101500911547 0 -0.46911802039878869 -0.4189002011659162 0 -0.46065789009920832 -0.4414101500911547 0 -0.46911802039878869 -0.4189002011659162 0 -0.44745410094531413 -0.42274491097222983 0 -0.46911802039878869 -0.4189002011659162 0 -0.46703483823831698 -0.40991255894124801 0 -0.46105080410611882 -0.40398645205652978 0 -0.46703483823831698 -0.40991255894124801 0 -0.44745410094531413 -0.42274491097222983 0 -0.46911802039878869 -0.4189002011659162 0 -0.46703483823831698 -0.40991255894124801 0 -0.44745410094531413 -0.42274491097222983 0 -0.46703483823831698 -0.40991255894124801 0 -0.44745410094531413 -0.42274491097222983 0 -0.46105080410611882 -0.40398645205652978 0 -0.43391045102568099 -0.410227979665794 0 -0.46105080410611882 -0.40398645205652978 0 -0.44745410094531413 -0.42274491097222983 0 -0.43391045102568099 -0.410227979665794 0 -0.44392128430186661 -0.44390884267885261 0 -0.46065789009920832 -0.4414101500911547 0 -0.44745410094531413 -0.42274491097222983 0 -0.44392128430186661 -0.44390884267885261 0 -0.44745410094531413 -0.42274491097222983 0 -0.42846242061901207 -0.4354407296462024 0 -0.44745410094531413 -0.42274491097222983 0 -0.42846242061901207 -0.4354407296462024 0 -0.44745410094531413 -0.42274491097222983 0 -0.42846242061901207 -0.4354407296462024 0 -0.42328943706711619 -0.42263722884806282 0 -0.44745410094531413 -0.42274491097222983 0 -0.42328943706711619 -0.42263722884806282 0 -0.43391045102568099 -0.410227979665794 0 -0.43391045102568099 -0.410227979665794 0 -0.40677009794524333 -0.41646950727505821 0 -0.43391045102568099 -0.410227979665794 0 -0.40677009794524333 -0.41646950727505821 0 -0.41742034013086221 -0.40262195437752257 0 -0.42328943706711619 -0.42263722884806282 0 -0.43391045102568099 -0.410227979665794 0 -0.40677009794524333 -0.41646950727505821 0 -0.40677009794524333 -0.41646950727505821 0 -0.41742034013086221 -0.40262195437752257 0 -0.40625281223680582 -0.40624285024390971 0 -0.42846242061901207 -0.4354407296462024 0 -0.42328943706711619 -0.42263722884806282 0 -0.40977868452440708 -0.4321616068871228 0 -0.42328943706711619 -0.42263722884806282 0 -0.40677009794524333 -0.41646950727505821 0 -0.40977868452440708 -0.4321616068871228 0 -0.41981058840083108 -0.38614912024092651 0 -0.43796197263147779 -0.37447112190649823 0 -0.42290478116073182 -0.36780927739212349 0 -0.43048958518223168 -0.39536869997562413 0 -0.41981058840083108 -0.38614912024092651 0 -0.43796197263147779 -0.3744711219064982
[...]
<PointData Scalars="" Vectors="displacement," Tensors="">
<DataArray type="Float64" Name="displacement" NumberOfComponents="3" format="ascii">
0.054999298390995349 0.054996517527795649 0 0.054996924080496785 0.050389976046571479 0 0.055056374268624753 0.052256795259156871 0 0.054999298390995349 0.054996517527795649 0 0.054329075818636066 0.05401158613550619 0 0.051582067827327306 0.054925367828052414 0 0.054999298390995349 0.054996517527795649 0 0.055056374268624753 0.052256795259156871 0 0.054329075818636066 0.05401158613550619 0 0.054996924080496785 0.050389976046571479 0 0.056344958634553223 0.046440295429416759 0 0.056411655056857635 0.04869839907516773 0 0.054996924080496785 0.050389976046571479 0 0.055056374268624753 0.052256795259156871 0 0.055967875699768313 0.050440592249948353 0 0.055056374268624753 0.052256795259156871 0 0.055311992200511265 0.052116133487271815 0 0.054329075818636066 0.05401158613550619 0 0.055056374268624753 0.052256795259156871 0 0.055311992200511265 0.052116133487271815 0 0.055967875699768313 0.050440592249948353 0 0.056892484815040625 0.051013305657881841 0 0.054121958434952405 0.050092726835541564 0 0.055311992200511265 0.052116133487271815 0 0.055967875699768313 0.050440592249948353 0 0.056203248633794341 0.051810495065630777 0 0.055967875699768313 0.050440592249948353 0 0.058019564223107722 0.04919347137405914 0 0.058531185217799112 0.051352330928949357 0 0.055967875699768313 0.050440592249948353 0 0.058019564223107722 0.04919347137405914 0 0.056411655056857635 0.04869839907516773 0 0.054996924080496785 0.050389976046571479 0 0.055967875699768313 0.050440592249948353 0 0.056411655056857635 0.04869839907516773 0 0.052085296427434161 0.045018829861354165 0 0.051172030543353175 0.04544060404621085 0 0.052184592551572075 0.045799079964579402 0 0.054121958434952405 0.050092726835541564 0 0.05584008485468607 0.046448374475868776 0 0.052085296427434161 0.045018829861354165 0 0.051172030543353175 0.04544060404621085 0 0.051525276701001287 0.04439071317952327 0 0.058019564223107722 0.04919347137405914 0 0.058531185217799112 0.051352330928949357 0 0.059904476017960499 0.047821074882205612 0 0.053288058376955993 0.056946507539618371 0 0.051559355385567752 0.055465382672597145 0 0.04954211691117668 0.05688549824014414 0 0.054121958434952405 0.050092726835541564 0 0.053848569630093684 0.054559778981234305 0 0.055311992200511265 0.052116133487271815 0 0.056203248633794341 0.051810495065630777 0 0.054329075818636066 0.05401158613550619 0 0.053288058376955993 0.056946507539618371 0 0.054329075818636066 0.05401158613550619 0 0.051559355385567752 0.055465382672597145 0 0.054121958434952405 0.050092726835541564 0 0.050689892011547076 0.051161694622337321 0 0.051559355385567752 0.055465382672597145 0 0.04954211691117668 0.05688549824014414 0 0.049127246383765255 0.055850547715389928 0 0.054999298390995349 0.054996517527795649 0 0.051582067827327306 0.054925367828052414 0 0.04862492070256897 0.054997323014735082 0 0.051559355385567752 0.055465382672597145 0 0.049127246383765255 0.055850547715389928 0 0.051582067827327306 0.054925367828052414 0 0.054329075818636066 0.05401158613550619 0 0.051559355385567752 0.055465382672597145 0 0.051582067827327306 0.054925367828052414 0 0.049127246383765255 0.055850547715389928 0 0.051582067827327306 0.054925367828052414 0 0.04862492070256897 0.054997323014735082 0 0.049127246383765255 0.055850547715389928 0 0.04862492070256897 0.054997323014735082 0 0.047165204571978508 0.055742502025702391 0 0.04862492070256897 0.054997323014735082 0 0.047165204571978508 0.055742502025702391 0 0.043714644116244261 0.054999633804053205 0 0.047165204571978508 0.055742502025702391 0 0.045484705495434881 0.056266936515568036 0 0.043714644116244261 0.054999633804053205 0 0.045484705495434881 0.056266936515568036 0 0.046590591072514974 0.057351361565145156 0 0.043193100920212557 0.056977433902418072 0 0.046574997040785021 0.057139745006345784 0 0.043510369429374023 0.056170825350479799 0 0.045572791133904972 0.057405166357867292 0 0.047165204571978508 0.055742502025702391 0 0.046602265140483205 0.05642543802298821 0 0.045484705495434881 0.056266936515568036 0 0.046602265140483205 0.05642543802298821 0 0.045484705495434881 0.056266936515568036 0 0.046590591072514974 0.057351361565145156 0 0.046602265140483205 0.05642543802298821 0 0.046590591072514974 0.057351361565145156 0 0.047338217123323915 0.056920492825433017 0 0.048283138037882041 0.054150891851290371 0 0.047242534753326043 0.055052062301749097 0 0.049127246383765255 0.055850547715389928 0 0.047165204571978508 0.055742502025702391 0 0.047338217123323915 0.056920492825433017 0 0.04954211691117668 0.05688549824014414 0 0.049127246383765255 0.055850547715389928 0 0.047338217123323915 0.056920492825433017 0 0.047165204571978508 0.055742502025702391 0 0.046602265140483205 0.05642543802298821 0 0.047338217123323915 0.056920492825433017 0 0.043714644116244261 0.054999633804053205 0 0.043193100920212557 0.056977433902418072 0 0.040088324726283792 0.056090002693494408 0 0.043055079546131206 0.056969677761525089 0 0.040346359719367335 0.055702695385724289 0 0.045484705495434881 0.056266936515568036 0 0.043714644116244261 0.054999633804053205 0 0.043193100920212557 0.056977433902418072 0 0.048283138037882041 0.054150891851290371 0 0.043055079546131206 0.056969677761525089 0 0.043510369429374023 0.056170825350479799 0 0.043441857590065219 0.057913828008239451 0 0.045572791133904972 0.057405166357867292 0 0.043510369429374023 0.056170825350479799 0 0.042681139690885168 0.057023182137152024 0 0.043441857590065219 0.057913828008239451 0 0.043510369429374023 0.056170825350479799 0 0.042681139690885168 0.057023182137152024 0 0.04174653648664324 0.056543820239862271 0 0.043510369429374023 0.056170825350479799 0 0.04174653648664324 0.056543820239862271 0 0.040464611648974212 0.055378726036671981 0 0.042681139690885168 0.057023182137152024 0 0.04174653648664324 0.056543820239862271 0 0.042413117301874324 0.057898604518440408 0 0.042413117301874324 0.057898604518440408 0 0.043441857590065219 0.057913828008239451 0 0.040667898343271315 0.058428243208600697 0 0.053210693447953067 0.0354558330234854 0 0.053329826452569798 0.035324984917520993 0 0.053498381821292393 0.035461581950899823 0 0.048976022046601404 0.046794011765362423 0 0.044228747304900153 0.045799581682652114 0 0.042681139690885168 0.057023182137152024 0 0.042413117301874324 0.057898604518440408 0 0.043441857590065219 0.057913828008239451 0 0.053227149862387357 0.035368266503754534 0 0.053210693447953067 0.0354558330234854 0 0.053329826452569798 0.035324984917520993 0 0.053227149862387357 0.035368266503754534 0 0.053276998114518324 0.035450236254425192 0 0.053183012680270279 0.035207398377507915 0 0.053210693447953067 0.0354558330234854 0 0.053276998114518324 0.035450236254425192 0 0.053343344061897578 0.035400500479892447 0 0.048976022046601404 0.046794011765362423 0 0.049823169453730498 0.046506288988557562 0 0.053227149862387357 0.035368266503754534 0 0.053210693447953067 0.0354558330234854 0 0.053276998114518324 0.035450236254425192 0 0.053276998114518324 0.035450236254425192 0 0.053183012680270279 0.035207398377507915 0 0.052854722310745637 0.034966426318336151 0 0.053183012680270279 0.035207398377507915 0 0.053329826452569798 0.035324984917520993 0 0.0534567012137835 0.035106272943361681 0 0.053183012680270279 0.035207398377507915 0 0.053160352850506069 0.034887229490701457 0 0.0534567012137835 0.035106272943361681 0 0.053227149862387357 0.035368266503754534 0 0.053183012680270279 0.035207398377507915 0 0.053329826452569798 0.035324984917520993 0 0.04954211691117668 0.05688549824014414 0 0.046712537769969469 0.057231011438002029 0 0.047338217123323915 0.056920492825433017 0 0.050689892011547076 0.051161694622337321 0 0.048283138037882041 0.054150891851290371 0 0.052184592551572075 0.045799079964579402 0 0.053134170510953281 0.046164166761192983 0 0.053013395795510995 0.045172896466855718 0 0.048283138037882041 0.054150891851290371 0 0.049823169453730498 0.046506288988557562 0 0.053276998114518324 0.035450236254425192 0 0.053343344061897578 0.035400500479892447 0 0.05381906078111133 0.035561754555885353 0 0.053134170510953281 0.046164166761192983 0 0.053513091318968357 0.046067455060733502 0 0.053013395795510995 0.045172896466855718 0 0.049823169453730498 0.046506288988557562 0 0.053605759320573369 0.039616245756097186 0 0.053277230826892667 0.035409285675233208 0 0.053331277863194346 0.035262352954102877 0 0.053276998114518324 0.035450236254425192 0 0.05381906078111133 0.035561754555885353 0 0.053796237133060053 0.035635494969697694 0 0.052085296427434161 0.045018829861354165 0 0.052184592551572075 0.045799079964579402 0 0.053013395795510995 0.045172896466855718 0 0.052085296427434161 0.045018829861354165 0 0.053013395795510995 0.045172896466855718 0 0.052500480387780851 0.044258338688728222 0 0.053605759320573369 0.039616245756097186 0 0.052998333004663584 0.039837214348620323 0 0.05381906078111133 0.035561754555885353 0 0.054054838425104029 0.035600128090789621 0 0.053978138507269451 0.035616442511421244 0 0.05381906078111133 0.035561754555885353 0 0.053978138507269451 0.035616442511421244 0 0.053796237133060053 0.035635494969697694 0 0.053331277863194346 0.035262352954102877 0 0.053505199248376926 0.034932089208724648 0 0.052854722310745637 0.034966426318336151 0 0.052925303661843365 0.034145258518297257 0 0.053015475085290767 0.03452792373299058 0 0.053978138507269451 0.035616442511421244 0 0.053796237133060053 0.035635494969697694 0 0.054067068106655347 0.035591143890657637 0 0.052925303661843365 0.034145258518297257 0 0.053015475085290767 0.03452792373299058 0 0.052912664321181427 0.034313668943750035 0 0.054054838425104029 0.035600128090789621 0 0.053978138507269451 0.035616442511421244 0 0.054126728600890114 0.035591263364080361 0 0.053978138507269451 0.035616442511421244 0 0.054067068106655347 0.035591143890657637 0 0.054126728600890114 0.035591263364080361 0 0.046079882444397466 0.035144819660759267 0 0.046066240532632308 0.035396150546967452 0 0.04616788239090993 0.03518561659843665 0 0.053160352850506069 0.034887229490701457 0 0.053318153811851531 0.034639276771789948 0 0.0534567012137835 0.035106272943361681 0 0.049660583721551819 0.035055242017969432 0 0.049754074823487641 0.033953999587591245 0 0.052854722310745637 0.034966426318336151 0 0.053160352850506069 0.034887229490701457 0 0.053015475085290767 0.03452792373299058 0 0.053160352850506069 0.034887229490701457 0 0.053015475085290767 0.03452792373299058 0 0.053318153811851531 0.034639276771789948 0 0.053183012680270279 0.035207398377507915 0 0.052854722310745637 0.034966426318336151 0 0.053160352850506069 0.034887229490701457 0 0.053015475085290767 0.03452792373299058 0 0.053318153811851531 0.034639276771789948 0 0.053034910506431845 0.034258509128792927 0 0.049660583721551819 0.035055242017969432 0 0.050598676856284712 0.034651409755338397 0 0.053015475085290767 0.03452792373299058 0 0.052912664321181427 0.034313668943750035 0 0.053034910506431845 0.034258509128792927 0 0.046079882444397466 0.035144819660759267 0 0.04612113172007154 0.035087136451774269 0 0.046139653882153367 0.035069015350394098 0 0.046079882444397466 0.035144819660759267 0 0.04616788239090993 0.03518561659843665 0 0.046139653882153367 0.035069015350394098 0 0.050598676856284712 0.034651409755338397 0 0.048210392925650429 0.034219377983956099 0 0.051301016178902259 0.034076738049800701 0 0.052115442299241602 0.033783244214325533 0 0.050895928810786507 0.033485986039710688 0 0.051301016178902259 0.034076738049800701 0 0.052115442299241602 0.033783244214325533 0 0.051839840613366168 0.034395951103597042 0 0.052912664321181427 0.034313668943750035 0 0.053034910506431845 0.034258509128792927 0 0.052817098707923019 0.034367425391585209 0 0.050598676856284712 0.034651409755338397 0 0.052978810110739454 0.034689471852402211 0 0.050598676856284712 0.034651409755338397 0 0.052328000552218451 0.034778922469822122 0 0.052429550376290476 0.034274872659549933 0 0.052612462268952921 0.034635095454436229 0 0.052817098707923019 0.034367425391585209 0 0.052115442299241602 0.033783244214325533 0 0.052612462268952921 0.034635095454436229 0 0.051839840613366168 0.034395951103597042 0 0.052612462268952921 0.034635095454436229 0 0.052022792175934626 0.034975675731933879 0 0.052881712907876417 0.035150161132890198 0 0.052022792175934626 0.034975675731933879 0 0.052881712907876417 0.035150161132890198 0 0.052722781988212127 0.035790027473689569 0 0.052612462268952921 0.034635095454436229 0 0.052022792175934626 0.034975675731933879 0 0.051839840613366168 0.034395951103597042 0 0.051301016178902259 0.034076738049800701 0 0.051291684204527808 0.034518623140241747 0 0.050517197619947225 0.034093448228478991 0 0.051301016178902259 0.034076738049800701 0 0.051839840613366168 0.034395951103597042 0 0.051291684204527808 0.034518623140241747 0 0.052022792175934626 0.034975675731933879 0 0.051839840613366168 0.034395951103597042 0 0.051291684204527808 0.034518623140241747 0 0.054126728600890114 0.035591263364080361 0 0.054136670739927902 0.035602959263798549 0 0.05438675854484628 0.035575908080034233 0 0.054067068106655347 0.035591143890657637 0 0.054126728600890114 0.035591263364080361 0 0.054136670739927902 0.035602959263798549 0 0.054067068106655347 0.035591143890657637 0 0.054136670739927902 0.035602959263798549 0 0.05385632651872535 0.035653314044701831 0 0.054136670739927902 0.035602959263798549 0 0.054291700342291006 0.035753019093677799 0 0.05438675854484628 0.035575908080034233 0 0.052925303661843365 0.034145258518297257 0 0.053002209907721851 0.034760634424676425 0 0.05385632651872535 0.035653314044701831 0 0.053505199248376926 0.034932089208724648 0 0.053826470795512872 0.035643703995227538 0 0.052925303661843365 0.034145258518297257 0 0.052912664321181427 0.034313668943750035 0 0.052817098707923019 0.034367425391585209 0 0.052925303661843365 0.034145258518297257 0 0.052817098707923019 0.034367425391585209 0 0.053002209907721851 0.034760634424676425 0 0.052612462268952921 0.034635095454436229 0 0.052817098707923019 0.034367425391585209 0 0.053002209907721851 0.034760634424676425 0 0.053002209907721851 0.034760634424676425 0 0.052881712907876417 0.035150161132890198 0 0.05385632651872535 0.035653314044701831 0 0.052612462268952921 0.034635095454436229 0 0.053002209907721851 0.034760634424676425 0 0.052881712907876417 0.035150161132890198 0 0.052881712907876417 0.035150161132890198 0 0.05385632651872535 0.035653314044701831 0 0.052722781988212127 0.035790027473689569 0 0.054291700342291006 0.035753019093677799 0 0.054855319476257672 0.036382022897549521 0 0.05438675854484628 0.035575908080034233 0 0.054136670739927902 0.035602959263798549 0 0.05385632651872535 0.035653314044701831 0 0.054291700342291006 0.035753019093677799 0 0.05385632651872535 0.035653314044701831 0 0.054291700342291006 0.035753019093677799 0 0.054855319476257672 0.036382022897549521 0 0.054711296881647581 0.036614554656677303 0 0.05521101611780737 0.035016570303021771 0 0.054855319476257672 0.036382022897549521 0 0.055930984625432167 0.03679524539803334 0 0.055495245417748529 0.035786480047017892 0 0.055930984625432167 0.03679524539803334 0 0.055495245417748529 0.035786480047017892 0 0.056793212416172592 0.035819469775036333 0 0.05521101611780737 0.035016570303021771 0 0.055337574002342405 0.039981735558947053 0 0.055495245417748529 0.035786480047017892 0 0.056793212416172592 0.035819469775036333 0 0.055963647968300737 0.034641405538972284 0 0.054126728600890114 0.035591263364080361 0 0.05438675854484628 0.035575908080034233 0 0.054226023744908293 0.035603210289288659 0 0.060016094129336797 0.042081163543932751 0 0.061378006172228557 0.044660163176243522 0 0.058925069895100421 0.044937818146124367 0 0.058568517126100894 0.039138536746314768 0 0.055337574002342405 0.039981735558947053 0 0.060016094129336797 0.042081163543932751 0 0.056992865263425799 0.043383887877113968 0 0.058925069895100421 0.044937818146124367 0 0.056793212416172592 0.035819469775036333 0 0.056874862795019999 0.037463090962492958 0 0.057805773223249271 0.038402688497039338 0 0.060016094129336797 0.042081163543932751 0 0.057805773223249271 0.038402688497039338 0 0.057358606109808245 0.040979560570820507 0 0.058568517126100894 0.039138536746314768 0 0.057803810243293494 0.03830058475657247 0 0.055930984625432167 0.03679524539803334 0 0.056793212416172592 0.035819469775036333 0 0.056874862795019999 0.037463090962492958 0 0.056874862795019999 0.037463090962492958 0 0.057805773223249271 0.038402688497039338 0 0.057268350333044213 0.037846984258901213 0 0.057805773223249271 0.038402688497039338 0 0.055636779802110049 0.040249312218089785 0 0.05731211450610782 0.037591259281877266 0 0.057805773223249271 0.038402688497039338 0 0.057358606109808245 0.040979560570820507 0 0.055636779802110049 0.040249312218089785 0 0.05637264652697023 0.042096844788477146 0 0.05500001168658316 0.041468522890096553 0 0.056087695497072383 0.040174191767519955 0 0.05637264652697023 0.042096844788477146 0 0.05500001168658316 0.041468522890096553 0 0.054999975952081344 0.044014446431247113 0 0.055636779802110049 0.040249312218089785 0 0.054997621958488542 0.04400962663484994 0 0.056992865263425799 0.043383887877113968 0 0.056122317504001394 0.041138923629525558 0 0.055000235268394003 0.044013472915315995 0 0.057358606109808245 0.040979560570820507 0 0.055636779802110049 0.040249312218089785 0 0.056992865263425799 0.043383887877113968 0 0.060016094129336797 0.042081163543932751 0 0.057358606109808245 0.040979560570820507 0 0.056992865263425799 0.043383887877113968 0 0.056992865263425799 0.043383887877113968 0 0.056344958634553223 0.046440295429416759 0 0.058925069895100421 0.044937818146124367 0 0.054996924080496785 0.050389976046571479 0 0.054997621958488542 0.04400962663484994 0 0.056344958634553223 0.046440295429416759 0 0.054997621958488542 0.04400962663484994 0 0.056992865263425799 0.043383887877113968 0 0.056344958634553223 0.046440295429416759 0 0.056344958634553223 0.046440295429416759 0 0.056411655056857635 0.04869839907516773 0 0.059904476017960499 0.047821074882205612 0 0.058019564223107722 0.04919347137405914 0 0.056411655056857635 0.04869839907516773 0 0.059904476017960499 0.047821074882205612 0 0.052085296427434161 0.045018829861354165 0 0.052500480387780851 0.044258338688728222 0 0.051525276701001287 0.04439071317952327 0 0.052500480387780851 0.044258338688728222 0 0.051525276701001287 0.04439071317952327 0 0.051928794135409441 0.04329145465635053 0 0.052998333004663584 0.039837214348620323 0 0.055337574002342405 0.039981735558947053 0 0.054054838425104029 0.035600128090789621 0 0.054126728600890114 0.035591263364080361 0 0.054226023744908293 0.035603210289288659 0 0.05584008485468607 0.046448374475868776 0 0.055337574002342405 0.039981735558947053 0 0.059904476017960499 0.047821074882205612 0 0.061378006172228557 0.044660163176243522 0 0.058925069895100421 0.044937818146124367 0 0.056344958634553223 0.046440295429416759 0 0.059904476017960499 0.047821074882205612 0 0.058925069895100421 0.044937818146124367 0 0.036594650551182009 0.054013139763888517 0 0.042425536494030622 0.042473532758186307 0 0.04659654914671018 0.04170330342006405 0 0.043138288161626979 0.048805272618485038 0 0.049347875350399716 0.044640013492567666 0 0.04659654914671018 0.04170330342006405 0 0.043138288161626979 0.048805272618485038 0 0.041328822081998166 0.039986222115533591 0 0.03119158872233007 0.057053114268176254 0 0.030367987485435278 0.056804740769700011 0 0.030736632132460546 0.05743090735029184 0 0.03119158872233007 0.057053114268176254 0 0.031838566915535084 0.057742827886289066 0 0.030736632132460546 0.05743090735029184 0 0.03119158872233007 0.057053114268176254 0 0.030446870536577981 0.056411600182078504 0 0.031532458594712778 0.056464149264928903 0 0.03119158872233007 0.057053114268176254 0 0.030367987485435278 0.056804740769700011 0 0.030446870536577981 0.0564116