<?xml version="1.0"?>
<VTKFile type="UnstructuredGrid" version="0.1" byte_order="LittleEndian">
<UnstructuredGrid>
<Piece NumberOfPoints="31301" NumberOfCells="10957">
<Points>
<DataArray type="Float64" NumberOfComponents="3" format="ascii">
-0.5 -0.5 0 -0.46638663260497448 -0.45096699443765093 0 -0.4752875195671884 -0.42645049165647703 0 -0.5 -0.5 0 -0.45748574564276068 -0.47548349721882471 0 -0.46638663260497448 -0.45096699443765093 0 -0.5 -0.5 0 -0.45748574564276068 -0.47548349721882471 0 -0.44858485868054743 -0.49999999999999872 0 -0.44638705120756123 -0.47907182558991779 0 -0.43858978110863878 -0.48419188083360631 0 -0.43655704025590358 -0.46793682688149568 0 -0.45748574564276068 -0.47548349721882471 0 -0.44638705120756123 -0.47907182558991779 0 -0.45071783034995572 -0.46774692301566229 0 -0.44638705120756123 -0.47907182558991779 0 -0.45071783034995572 -0.46774692301566229 0 -0.43655704025590358 -0.46793682688149568 0 -0.45748574564276068 -0.47548349721882471 0 -0.44858485868054743 -0.49999999999999872 0 -0.44638705120756123 -0.47907182558991779 0 -0.43858978110863878 -0.48419188083360631 0 -0.44858485868054743 -0.49999999999999872 0 -0.45748574564276068 -0.47548349721882471 0 -0.44638705120756123 -0.47907182558991779 0 -0.44858485868054743 -0.49999999999999872 0 -0.43858978110863878 -0.48419188083360631 0 -0.44858485868054743 -0.49999999999999872 0 -0.43061719251594133 -0.50000000000000444 0 -0.44868503478737248 -0.44598917038306501 0 -0.43583338767575092 -0.43369267196034877 0 -0.43574456427468933 -0.44650494779330818 0 -0.44868503478737248 -0.44598917038306501 0 -0.44004111594584422 -0.45624936009898848 0 -0.43574456427468933 -0.44650494779330818 0 -0.44868503478737248 -0.44598917038306501 0 -0.45071783034995572 -0.46774692301566229 0 -0.44868503478737248 -0.44598917038306501 0 -0.44004111594584422 -0.45624936009898848 0 -0.45071783034995572 -0.46774692301566229 0 -0.44004111594584422 -0.45624936009898848 0 -0.45071783034995572 -0.46774692301566229 0 -0.43655704025590358 -0.46793682688149568 0 -0.45748574564276068 -0.47548349721882471 0 -0.45071783034995572 -0.46774692301566229 0 -0.46638663260497448 -0.45096699443765093 0 -0.45748574564276068 -0.47548349721882471 0 -0.46638663260497448 -0.45096699443765093 0 -0.44868503478737248 -0.44598917038306501 0 -0.45071783034995572 -0.46774692301566229 0 -0.46638663260497448 -0.45096699443765093 0 -0.46638663260497448 -0.45096699443765093 0 -0.4752875195671884 -0.42645049165647703 0 -0.45982653659801898 -0.43643022365340017 0 -0.44868503478737248 -0.44598917038306501 0 -0.46638663260497448 -0.45096699443765093 0 -0.45982653659801898 -0.43643022365340017 0 -0.46638663260497448 -0.45096699443765093 0 -0.4752875195671884 -0.42645049165647703 0 -0.5 -0.5 0 -0.4752875195671884 -0.42645049165647703 0 -0.5 -0.37994680708575929 0 -0.5 -0.37994680708575929 0 -0.45675460445725402 -0.3901296854313363 0 -0.46454068268534932 -0.36624217470093601 0 -0.4752875195671884 -0.42645049165647703 0 -0.5 -0.37994680708575929 0 -0.45675460445725402 -0.3901296854313363 0 -0.45675460445725402 -0.3901296854313363 0 -0.4422018499973413 -0.37659727799144932 0 -0.46454068268534932 -0.36624217470093601 0 -0.45675460445725402 -0.3901296854313363 0 -0.45074697470592878 -0.40470458864898901 0 -0.44461944366220629 -0.40247366511787042 0 -0.45074697470592878 -0.40470458864898901 0 -0.44461944366220629 -0.40247366511787042 0 -0.44461944366220629 -0.40247366511787042 0 -0.4422018499973413 -0.37659727799144932 0 -0.45675460445725402 -0.3901296854313363 0 -0.44461944366220629 -0.40247366511787042 0 -0.4422018499973413 -0.37659727799144932 0 -0.4752875195671884 -0.42645049165647703 0 -0.45675460445725402 -0.3901296854313363 0 -0.45074697470592878 -0.40470458864898901 0 -0.4752875195671884 -0.42645049165647703 0 -0.45982653659801898 -0.43643022365340017 0 -0.44665223922478953 -0.42423141775046769 0 -0.4752875195671884 -0.42645049165647703 0 -0.45074697470592878 -0.40470458864898901 0 -0.44665223922478953 -0.42423141775046769 0 -0.44461944366220629 -0.40247366511787042 0 -0.44665223922478953 -0.42423141775046769 0 -0.45074697470592878 -0.40470458864898901 0 -0.44461944366220629 -0.40247366511787042 0 -0.44665223922478953 -0.42423141775046769 0 -0.44461944366220629 -0.40247366511787042 0 -0.44665223922478953 -0.42423141775046769 0 -0.43190992604339917 -0.41146058259026358 0 -0.44665223922478953 -0.42423141775046769 0 -0.43583338767575092 -0.43369267196034877 0 -0.43179441525183287 -0.42341725705951538 0 -0.44868503478737248 -0.44598917038306501 0 -0.44665223922478953 -0.42423141775046769 0 -0.44868503478737248 -0.44598917038306501 0 -0.44665223922478953 -0.42423141775046769 0 -0.43583338767575092 -0.43369267196034877 0 -0.44868503478737248 -0.44598917038306501 0 -0.45982653659801898 -0.43643022365340017 0 -0.44665223922478953 -0.42423141775046769 0 -0.43583338767575092 -0.43369267196034877 0 -0.42139824175997731 -0.43005810479360151 0 -0.42440061003392793 -0.44176447442364009 0 -0.43179441525183287 -0.42341725705951538 0 -0.42224515979673422 -0.4177634137272877 0 -0.42139824175997731 -0.43005810479360151 0 -0.43583338767575092 -0.43369267196034877 0 -0.43179441525183287 -0.42341725705951538 0 -0.42139824175997731 -0.43005810479360151 0 -0.44665223922478953 -0.42423141775046769 0 -0.43179441525183287 -0.42341725705951538 0 -0.43190992604339917 -0.41146058259026358 0 -0.43190992604339917 -0.41146058259026358 0 -0.42224515979673422 -0.4177634137272877 0 -0.41973040802004191 -0.40709713166068501 0 -0.43179441525183287 -0.42341725705951538 0 -0.43190992604339917 -0.41146058259026358 0 -0.42224515979673422 -0.4177634137272877 0 -0.42224515979673422 -0.4177634137272877 0 -0.41437056647242948 -0.41338818489405371 0 -0.41272245210148961 -0.42103391996631812 0 -0.41973040802004191 -0.40709713166068501 0 -0.41437056647242948 -0.41338818489405371 0 -0.41159354162164608 -0.40714795687614203 0 -0.42224515979673422 -0.4177634137272877 0 -0.41973040802004191 -0.40709713166068501 0 -0.41437056647242948 -0.41338818489405371 0 -0.41159354162164608 -0.40714795687614203 0 -0.40880770822346801 -0.41347540877526212 0 -0.405112952370972 -0.40517584771015519 0 -0.41437056647242948 -0.41338818489405371 0 -0.41159354162164608 -0.40714795687614203 0 -0.40880770822346801 -0.41347540877526212 0 -0.40880770822346801 -0.41347540877526212 0 -0.41272245210148961 -0.42103391996631812 0 -0.40023902855080279 -0.42063113442964117 0 -0.41437056647242948 -0.41338818489405371 0 -0.40880770822346801 -0.41347540877526212 0 -0.41272245210148961 -0.42103391996631812 0 -0.41272245210148961 -0.42103391996631812 0 -0.41126030545594622 -0.43202220800462199 0 -0.40023902855080279 -0.42063113442964117 0 -0.41126030545594622 -0.43202220800462199 0 -0.40023902855080279 -0.42063113442964117 0 -0.41036508320584852 -0.44708742295309578 0 -0.41126030545594622 -0.43202220800462199 0 -0.42139824175997731 -0.43005810479360151 0 -0.41681480434218471 -0.4398092100823302 0 -0.42139824175997731 -0.43005810479360151 0 -0.42440061003392793 -0.44176447442364009 0 -0.41681480434218471 -0.4398092100823302 0 -0.42224515979673422 -0.4177634137272877 0 -0.41272245210148961 -0.42103391996631812 0 -0.42139824175997731 -0.43005810479360151 0 -0.41272245210148961 -0.42103391996631812 0 -0.41126030545594622 -0.43202220800462199 0 -0.42139824175997731 -0.43005810479360151 0 -0.4422018499973413 -0.37659727799144932 0 -0.42446809264834062 -0.3753320770450318 0 -0.42234390670551109 -0.39436354389442929 0 -0.43190992604339917 -0.41146058259026358 0 -0.41973040802004191 -0.40709713166068501 0 -0.42234390670551109 -0.39436354389442929 0 -0.44461944366220629 -0.40247366511787042 0 -0.43190992604339917 -0.41146058259026358 0 -0.42234390670551109 -0.39436354389442929 0 -0.44461944366220629 -0.40247366511787042 0 -0.4422018499973413 -0.37659727799144932 0 -0.42234390670551109 -0.39436354389442929 0 -0.44461944366220629 -0.40247366511787042 0 -0.42234390670551109 -0.39436354389442929 0 -0.42234390670551109 -0.39436354389442929 0 -0.4115574467008829 -0.39869852860455468 0 -0.40006836974881582 -0.38625342267098922 0 -0.41973040802004191 -0.40709713166068501 0 -0.42234390670551109 -0.39436354389442929 0 -0.4115574467008829 -0.39869852860455468 0 -0.41973040802004191 -0.40709713166068501 0 -0.41159354162164608 -0.40714795687614203 0 -0.4115574467008829 -0.39869852860455468 0 -0.4115574467008829 -0.39869852860455468 0 -0.40230818894741388 -0.39568539256312141 0 -0.405112952370972 -0.40517584771015519 0 -0.41159354162164608 -0.40714795687614203 0 -0.4115574467008829 -0.39869852860455468 0 -0.405112952370972 -0.40517584771015519 0 -0.42234390670551109 -0.39436354389442929 0 -0.413932837228626 -0.38103170464959779 0 -0.40006836974881582 -0.38625342267098922 0 -0.413932837228626 -0.38103170464959779 0 -0.40006836974881582 -0.38625342267098922 0 -0.40885097981183632 -0.36817777498794202 0 -0.42446809264834062 -0.3753320770450318 0 -0.42234390670551109 -0.39436354389442929 0 -0.413932837228626 -0.38103170464959779 0 -0.42234390670551109 -0.39436354389442929 0 -0.40006836974881582 -0.38625342267098922 0 -0.40006836974881582 -0.38625342267098922 0 -0.38741328428810612 -0.38164593431374128 0 -0.38926558404644362 -0.35919355171370199 0 -0.40006836974881582 -0.38625342267098922 0 -0.39745516787158269 -0.39094336719246509 0 -0.39951298741224928 -0.39248028101319049 0 -0.40006836974881582 -0.38625342267098922 0 -0.3953415595839625 -0.38861439195611841 0 -0.39745516787158269 -0.39094336719246509 0 -0.40006836974881582 -0.38625342267098922 0 -0.3953415595839625 -0.38861439195611841 0 -0.38741328428810612 -0.38164593431374128 0 -0.3953415595839625 -0.38861439195611841 0 -0.39227608070761327 -0.39179550925761591 0 -0.38741328428810612 -0.38164593431374128 0 -0.40006836974881582 -0.38625342267098922 0 -0.38741328428810612 -0.38164593431374128 0 -0.3953415595839625 -0.38861439195611841 0 -0.39514368495759311 -0.39208274393630921 0 -0.39745516787158269 -0.39094336719246509 0 -0.38811298669521599 -0.4012536930630222
[...]
<PointData Scalars="" Vectors="displacement," Tensors="">
<DataArray type="Float64" Name="displacement" NumberOfComponents="3" format="ascii">
-0.035000419813542773 -0.03499517366043995 0 -0.032272668456546923 -0.035104536100673378 0 -0.030241431166300084 -0.035186395462442947 0 -0.035000419813542773 -0.03499517366043995 0 -0.034083364735821423 -0.033882196411793915 0 -0.032272668456546923 -0.035104536100673378 0 -0.035000419813542773 -0.03499517366043995 0 -0.034083364735821423 -0.033882196411793915 0 -0.034996381270656428 -0.03141013397025548 0 -0.034542656699888465 -0.031967496975615829 0 -0.034709851063766832 -0.031411016075972895 0 -0.034377376974882648 -0.031808042379347923 0 -0.03444379413862525 -0.032304805261503061 0 -0.034542656699888465 -0.031967496975615829 0 -0.034161233640549245 -0.032792333672959521 0 -0.034542656699888465 -0.031967496975615829 0 -0.034161233640549245 -0.032792333672959521 0 -0.034377376974882648 -0.031808042379347923 0 -0.034187203224973359 -0.033081461646253321 0 -0.034999466993925137 -0.031401496076254989 0 -0.034542656699888465 -0.031967496975615829 0 -0.034709851063766832 -0.031411016075972895 0 -0.034999063080539169 -0.031398439393542449 0 -0.03444379413862525 -0.032304805261503061 0 -0.034542656699888465 -0.031967496975615829 0 -0.034999063080539169 -0.031398439393542449 0 -0.034709851063766832 -0.031411016075972895 0 -0.034999063080539169 -0.031398439393542449 0 -0.034999381094998651 -0.030148146046414765 0 -0.034576261062177399 -0.032145733727719304 0 -0.034617643365046115 -0.031919195449470313 0 -0.034499687278381014 -0.031895713490431001 0 -0.034576261062177399 -0.032145733727719304 0 -0.034461746465371014 -0.032005952506432796 0 -0.034499687278381014 -0.031895713490431001 0 -0.033126253682553904 -0.033730524819005146 0 -0.033944301652947144 -0.033037052950238205 0 -0.034576261062177399 -0.032145733727719304 0 -0.034461746465371014 -0.032005952506432796 0 -0.034161233640549245 -0.032792333672959521 0 -0.034461746465371014 -0.032005952506432796 0 -0.034161233640549245 -0.032792333672959521 0 -0.034377376974882648 -0.031808042379347923 0 -0.03444379413862525 -0.032304805261503061 0 -0.034161233640549245 -0.032792333672959521 0 -0.032523556962496647 -0.033905477366207991 0 -0.034187203224973359 -0.033081461646253321 0 -0.03242779068938291 -0.034487125120163289 0 -0.032039542065326547 -0.035403890526316491 0 -0.034161233640549245 -0.032792333672959521 0 -0.032523556962496647 -0.033905477366207991 0 -0.032523556962496647 -0.033905477366207991 0 -0.030241431166300084 -0.035186395462442947 0 -0.031135146704219917 -0.035248703526075592 0 -0.032039542065326547 -0.035403890526316491 0 -0.032523556962496647 -0.033905477366207991 0 -0.031135146704219917 -0.035248703526075592 0 -0.03242779068938291 -0.034487125120163289 0 -0.030481348467823379 -0.035015504170781857 0 -0.035000419813542773 -0.03499517366043995 0 -0.030241431166300084 -0.035186395462442947 0 -0.026597352775480004 -0.034997923881943137 0 -0.026597352775480004 -0.034997923881943137 0 -0.027219986579629412 -0.036471212292662099 0 -0.025613070574046458 -0.036369348156010291 0 -0.030241431166300084 -0.035186395462442947 0 -0.026597352775480004 -0.034997923881943137 0 -0.027219986579629412 -0.036471212292662099 0 -0.027219986579629412 -0.036471212292662099 0 -0.02603921557579611 -0.037004513075735226 0 -0.025613070574046458 -0.036369348156010291 0 -0.027219986579629412 -0.036471212292662099 0 -0.028482699692508055 -0.036710788121607066 0 -0.028212883436974263 -0.037238179211267305 0 -0.029184382596679461 -0.036688152795152015 0 -0.030070275390943101 -0.035214677775098333 0 -0.030070275390943101 -0.035214677775098333 0 -0.025013952579114224 -0.037486551693564928 0 -0.027219986579629412 -0.036471212292662099 0 -0.028212883436974263 -0.037238179211267305 0 -0.02603921557579611 -0.037004513075735226 0 -0.030241431166300084 -0.035186395462442947 0 -0.027219986579629412 -0.036471212292662099 0 -0.028482699692508055 -0.036710788121607066 0 -0.030241431166300084 -0.035186395462442947 0 -0.031135146704219917 -0.035248703526075592 0 -0.03009789333409953 -0.03651652805536873 0 -0.030241431166300084 -0.035186395462442947 0 -0.028482699692508055 -0.036710788121607066 0 -0.03009789333409953 -0.03651652805536873 0 -0.030070275390943101 -0.035214677775098333 0 -0.032789900498649702 -0.034294446843779545 0 -0.028482699692508055 -0.036710788121607066 0 -0.028313149143067373 -0.037195607077937468 0 -0.03009789333409953 -0.03651652805536873 0 -0.035445497716585096 -0.032345023068787608 0 -0.034769729265803059 -0.032203967853843871 0 -0.035165399149268924 -0.031907221022759627 0 -0.034769729265803059 -0.032203967853843871 0 -0.034617643365046115 -0.031919195449470313 0 -0.034787482470859186 -0.031828148009376764 0 -0.033126253682553904 -0.033730524819005146 0 -0.032789900498649702 -0.034294446843779545 0 -0.034576261062177399 -0.032145733727719304 0 -0.034769729265803059 -0.032203967853843871 0 -0.034617643365046115 -0.031919195449470313 0 -0.032039542065326547 -0.035403890526316491 0 -0.031135146704219917 -0.035248703526075592 0 -0.03009789333409953 -0.03651652805536873 0 -0.034617643365046115 -0.031919195449470313 0 -0.03456626927575808 -0.031482534776058009 0 -0.034446047033935397 -0.031616344650902573 0 -0.034787482470859186 -0.031828148009376764 0 -0.034891983337792455 -0.031487561365620517 0 -0.03456626927575808 -0.031482534776058009 0 -0.034617643365046115 -0.031919195449470313 0 -0.034787482470859186 -0.031828148009376764 0 -0.03456626927575808 -0.031482534776058009 0 -0.034769729265803059 -0.032203967853843871 0 -0.034787482470859186 -0.031828148009376764 0 -0.035165399149268924 -0.031907221022759627 0 -0.035165399149268924 -0.031907221022759627 0 -0.034891983337792455 -0.031487561365620517 0 -0.035345192766565413 -0.031409670586854489 0 -0.034787482470859186 -0.031828148009376764 0 -0.035165399149268924 -0.031907221022759627 0 -0.034891983337792455 -0.031487561365620517 0 -0.034891983337792455 -0.031487561365620517 0 -0.035008538060915563 -0.031072108313035481 0 -0.034690702426854021 -0.031043556891359875 0 -0.035345192766565413 -0.031409670586854489 0 -0.035008538060915563 -0.031072108313035481 0 -0.035338142482931781 -0.030830063218702505 0 -0.034891983337792455 -0.031487561365620517 0 -0.035345192766565413 -0.031409670586854489 0 -0.035008538060915563 -0.031072108313035481 0 -0.035338142482931781 -0.030830063218702505 0 -0.034954922669826298 -0.030726598115613034 0 -0.03545812721063598 -0.030218297308256075 0 -0.035008538060915563 -0.031072108313035481 0 -0.035338142482931781 -0.030830063218702505 0 -0.034954922669826298 -0.030726598115613034 0 -0.034954922669826298 -0.030726598115613034 0 -0.034690702426854021 -0.031043556891359875 0 -0.034469594534224261 -0.03041248016643968 0 -0.035008538060915563 -0.031072108313035481 0 -0.034954922669826298 -0.030726598115613034 0 -0.034690702426854021 -0.031043556891359875 0 -0.034690702426854021 -0.031043556891359875 0 -0.034452473466235055 -0.031116469053766773 0 -0.034469594534224261 -0.03041248016643968 0 -0.034452473466235055 -0.031116469053766773 0 -0.034469594534224261 -0.03041248016643968 0 -0.034326596590917045 -0.031428720774375675 0 -0.034452473466235055 -0.031116469053766773 0 -0.03456626927575808 -0.031482534776058009 0 -0.034403440070734127 -0.031415395258058892 0 -0.03456626927575808 -0.031482534776058009 0 -0.034446047033935397 -0.031616344650902573 0 -0.034403440070734127 -0.031415395258058892 0 -0.034891983337792455 -0.031487561365620517 0 -0.034690702426854021 -0.031043556891359875 0 -0.03456626927575808 -0.031482534776058009 0 -0.034690702426854021 -0.031043556891359875 0 -0.034452473466235055 -0.031116469053766773 0 -0.03456626927575808 -0.031482534776058009 0 -0.02603921557579611 -0.037004513075735226 0 -0.025847630857666733 -0.037336020131808631 0 -0.026521856376634751 -0.037194598090147704 0 -0.035165399149268924 -0.031907221022759627 0 -0.035345192766565413 -0.031409670586854489 0 -0.036037108148051292 -0.031760409402387349 0 -0.035445497716585096 -0.032345023068787608 0 -0.035165399149268924 -0.031907221022759627 0 -0.036037108148051292 -0.031760409402387349 0 -0.026655559973222807 -0.036827245337259978 0 -0.02603921557579611 -0.037004513075735226 0 -0.026521856376634751 -0.037194598090147704 0 -0.030070275390943101 -0.035214677775098333 0 -0.031525545724294203 -0.03440122158823497 0 -0.036037108148051292 -0.031760409402387349 0 -0.035889774052771418 -0.030791370518134638 0 -0.037303965986941842 -0.029687625737149122 0 -0.035345192766565413 -0.031409670586854489 0 -0.036037108148051292 -0.031760409402387349 0 -0.035889774052771418 -0.030791370518134638 0 -0.035345192766565413 -0.031409670586854489 0 -0.035338142482931781 -0.030830063218702505 0 -0.035889774052771418 -0.030791370518134638 0 -0.035889774052771418 -0.030791370518134638 0 -0.036233979993699275 -0.029801407646079234 0 -0.03545812721063598 -0.030218297308256075 0 -0.035338142482931781 -0.030830063218702505 0 -0.035889774052771418 -0.030791370518134638 0 -0.03545812721063598 -0.030218297308256075 0 -0.026521856376634751 -0.037194598090147704 0 -0.02605111761628956 -0.037616440841322624 0 -0.026364809771676823 -0.038090679068746587 0 -0.02605111761628956 -0.037616440841322624 0 -0.026364809771676823 -0.038090679068746587 0 -0.025383666369977003 -0.037934130764366997 0 -0.025847630857666733 -0.037336020131808631 0 -0.026521856376634751 -0.037194598090147704 0 -0.02605111761628956 -0.037616440841322624 0 -0.031525545724294203 -0.03440122158823497 0 -0.030681759769244737 -0.033076908816841145 0 -0.031940955792228172 -0.029749207925146473 0 -0.031514162165935902 -0.0309074957965241 0 -0.02937413562371113 -0.030721291141839895 0 -0.037303965986941842 -0.029687625737149122 0 -0.036729034322212063 -0.02914747117263481 0 -0.036572361917367381 -0.029453149234306232 0 -0.037303965986941842 -0.029687625737149122 0 -0.037020245544186814 -0.028810961818577938 0 -0.036729034322212063 -0.02914747117263481 0 -0.037303965986941842 -0.029687625737149122 0 -0.037020245544186814 -0.028810961818577938 0 -0.038240918962049023 -0.027364952012546531 0 -0.037020245544186814 -0.028810961818577938 0 -0.036491693152701211 -0.028214034216501021 0 -0.038240918962049023 -0.027364952012546531 0 -0.030681759769244737 -0.033076908816841145 0 -0.034947318823412184 -0.026647141200480666 0 -0.037020245544186814 -0.028810961818577938 0 -0.036550133558785482 -0.028726703243662739 0 -0.036729034322212063 -0.02914747117263481 0 -0.036346576706102598 -0.027478067913182767 0 -0.036238230640099831 -0.027776048559259942 0 -0.036795164904551154 -0.027015992663463117 0 -0.036030902121529831 -0.0288395339314465 0 -0.036238230640099831 -0.027776048559259942 0 -0.034469594534224261 -0.03041248016643968 0 -0.036317475292544976 -0.028479758748304874 0 -0.036491693152701211 -0.028214034216501021 0 -0.036550133558785482 -0.028726703243662739 0 -0.037020245544186814 -0.028810961818577938 0 -0.036491693152701211 -0.028214034216501021 0 -0.036550133558785482 -0.028726703243662739 0 -0.036317475292544976 -0.028479758748304874 0 -0.036491693152701211 -0.028214034216501021 0 -0.036238230640099831 -0.027776048559259942 0 -0.036317475292544976 -0.028479758748304874 0 -0.036030902121529831 -0.0288395339314465 0 -0.036238230640099831 -0.027776048559259942 0 -0.036317475292544976 -0.028479758748304874 0 -0.036030902121529831 -0.0288395339314465 0 -0.036355817567825251 -0.028990771873258558 0 -0.036030902121529831 -0.0288395339314465 0 -0.036355817567825251 -0.028990771873258558 0 -0.036145032945662271 -0.029349834793118583 0 -0.036355817567825251 -0.028990771873258558 0 -0.036572361917367381 -0.029453149234306232 0 -0.036145032945662271 -0.029349834793118583 0 -0.036317475292544976 -0.028479758748304874 0 -0.036355817567825251 -0.028990771873258558 0 -0.036550133558785482 -0.028726703243662739 0 -0.036355817567825251 -0.028990771873258558 0 -0.036550133558785482 -0.028726703243662739 0 -0.036729034322212063 -0.02914747117263481 0 -0.036355817567825251 -0.028990771873258558 0 -0.036729034322212063 -0.02914747117263481 0 -0.036572361917367381 -0.029453149234306232 0 -0.037303965986941842 -0.029687625737149122 0 -0.036572361917367381 -0.029453149234306232 0 -0.036233979993699275 -0.029801407646079234 0 -0.035889774052771418 -0.030791370518134638 0 -0.037303965986941842 -0.029687625737149122 0 -0.036233979993699275 -0.029801407646079234 0 -0.036572361917367381 -0.029453149234306232 0 -0.036233979993699275 -0.029801407646079234 0 -0.036145032945662271 -0.029349834793118583 0 -0.036030902121529831 -0.0288395339314465 0 -0.036145032945662271 -0.029349834793118583 0 -0.03562412082750633 -0.029664640699998451 0 -0.036233979993699275 -0.029801407646079234 0 -0.036145032945662271 -0.029349834793118583 0 -0.03562412082750633 -0.029664640699998451 0 -0.036233979993699275 -0.029801407646079234 0 -0.03545812721063598 -0.030218297308256075 0 -0.03562412082750633 -0.029664640699998451 0 -0.036346576706102598 -0.027478067913182767 0 -0.036280473369858991 -0.027266329344889505 0 -0.036438290085993967 -0.027316611522263629 0 -0.036280473369858991 -0.027266329344889505 0 -0.036438290085993967 -0.027316611522263629 0 -0.036509927263400153 -0.027156127220710646 0 -0.036280473369858991 -0.027266329344889505 0 -0.036509927263400153 -0.027156127220710646 0 -0.036200868149967952 -0.027116318007381394 0 -0.036280473369858991 -0.027266329344889505 0 -0.036288035623694474 -0.027252759297006615 0 -0.036200868149967952 -0.027116318007381394 0 -0.036280473369858991 -0.027266329344889505 0 -0.036308120136827104 -0.027414809135453116 0 -0.036288035623694474 -0.027252759297006615 0 -0.036308120136827104 -0.027414809135453116 0 -0.036506704842369599 -0.027603940624612976 0 -0.036288035623694474 -0.027252759297006615 0 -0.036346576706102598 -0.027478067913182767 0 -0.036280473369858991 -0.027266329344889505 0 -0.036308120136827104 -0.027414809135453116 0 -0.036346576706102598 -0.027478067913182767 0 -0.036308120136827104 -0.027414809135453116 0 -0.036238230640099831 -0.027776048559259942 0 -0.036308120136827104 -0.027414809135453116 0 -0.036238230640099831 -0.027776048559259942 0 -0.036506704842369599 -0.027603940624612976 0 -0.036491693152701211 -0.028214034216501021 0 -0.036238230640099831 -0.027776048559259942 0 -0.036506704842369599 -0.027603940624612976 0 -0.036288035623694474 -0.027252759297006615 0 -0.036381414342122546 -0.02735550047975064 0 -0.035936431053010871 -0.027073189912177102 0 -0.034947318823412184 -0.026647141200480666 0 -0.036343621370905188 -0.025390310032264704 0 -0.03675007341923623 -0.02701356032894478 0 -0.034947318823412184 -0.026647141200480666 0 -0.036506704842369599 -0.027603940624612976 0 -0.036288035623694474 -0.027252759297006615 0 -0.036381414342122546 -0.02735550047975064 0 -0.036491693152701211 -0.028214034216501021 0 -0.036506704842369599 -0.027603940624612976 0 -0.038240918962049023 -0.027364952012546531 0 -0.035701713032540758 -0.028696325635642297 0 -0.035556106208477101 -0.029689666798400752 0 -0.036821080061638048 -0.027202316833040134 0 -0.036795164904551154 -0.027015992663463117 0 -0.03682456463902592 -0.027974664508852019 0 -0.036821080061638048 -0.027202316833040134 0 -0.036795164904551154 -0.027015992663463117 0 -0.036809068113153931 -0.027029444761140758 0 -0.036821080061638048 -0.027202316833040134 0 -0.036809068113153931 -0.027029444761140758 0 -0.036839877554773665 -0.027036952600036631 0 -0.036821080061638048 -0.027202316833040134 0 -0.036839877554773665 -0.027036952600036631 0 -0.0368199290743021 -0.027101925168898509 0 -0.036346576706102598 -0.027478067913182767 0 -0.036795164904551154 -0.027015992663463117 0 -0.036438290085993967 -0.027316611522263629 0 -0.03545812721063598 -0.030218297308256075 0 -0.03562412082750633 -0.029664640699998451 0 -0.034469594534224261 -0.03041248016643968 0 -0.036030902121529831 -0.0288395339314465 0 -0.03562412082750633 -0.029664640699998451 0 -0.034469594534224261 -0.03041248016643968 0 -0.036346491268803162 -0.027843568455158986 0 -0.035701713032540758 -0.028696325635642297 0 -0.034954922669826298 -0.030726598115613034 0 -0.03545812721063598 -0.030218297308256075 0 -0.034469594534224261 -0.03041248016643968 0 -0.036509927263400153 -0.027156127220710646 0 -0.036716283798805836 -0.026956767167827592 0 -0.036809068113153931 -0.027029444761140758 0 -0.036795164904551154 -0.027015992663463117 0 -0.036438290085993967 -0.027316611522263629 0 -0.036509927263400153 -0.027156127220710646 0 -0.036795164904551154 -0.027015992663463117 0 -0.036509927263400153 -0.027156127220710646 0 -0.036809068113153931 -0.027029444761140758 0 -0.036509927263400153 -0.027156127220710646 0 -0.036716283798805836 -0.026956767167827592 0 -0.036681737966892725 -0.026806566702981423 0 -0.036716283798805836 -0.026956767167827592 0 -0.036844620188826477 -0.02690018800222058 0 -0.036909959617917008 -0.026587839670280465 0 -0.036716283798805836 -0.026956767167827592 0 -0.036809068113153931 -0.027029444761140758 0 -0.036844620188826477 -0.02690018800222058 0 -0.036839877554773665 -0.027036952600036631 0 -0.036844620188826477 -0.02690018800222058 0 -0.036866644576450003 -0.026807197987729462 0 -0.036809068113153931 -0.027029444761140758 0 -0.036839877554773665 -0.027036952600036631 0 -0.036844620188826477 -0.02690018800222058 0 -0.036844620188826477 -0.02690018800222058 0 -0.036866644576450003 -0.026807197987729462 0 -0.036909959617917008 -0.026587839670280465 0 -0.036866644576450003 -0.026807197987729462 0 -0.0368199290743021 -0.027101925168898509 0 -0.036720232664274481 -0.02705241681496336 0 -0.036839877554773665 -0.027036952600036631 0 -0.036866644576450003 -0.026807197987729462 0 -0.0368199290743021 -0.027101925168898509 0 -0.036821080061638048 -0.027202316833040134 0 -0.0368199290743021 -0.027101925168898509 0 -0.036784022434541118 -0.02733959988989846 0 -0.036821080061638048 -0.027202316833040134 0 -0.036737510686095452 -0.027968435199280484 0 -0.03682456463902592 -0.027974664508852019 0 -0.036873236402411955 -0.027287470392176421 0 -0.036760346531301384 -0.02764690754325393 0 -0.0368199290743021 -0.027101925168898509 0 -0.036784022434541118 -0.02733959988989846 0 -0.036720232664274481 -0.02705241681496336 0 -0.036784022434541118 -0.02733959988989846 0 -0.036470156056397529 -0.027332041129644217 0 -0.036175477117810308 -0.02797545506391769 0 -0.036760346531301384 -0.02764690754325393 0 -0.036123435786915431 -0.028213607440306751 0 -0.036784022434541118 -0.02733959988989846 0 -0.036470156056397529 -0.027332041129644217 0 -0.036720232664274481 -0.02705241681496336 0 -0.036470156056397529 -0.027332041129644217 0 -0.036411757659733146 -0.026938036419415123 0 -0.036720232664274481 -0.02705241681496336 0 -0.036411757659733146 -0.026938036419415123 0 -0.036720232664274481 -0.02705241681496336 0 -0.036663028993005005 -0.026518219815298543 0 -0.036866644576450003 -0.026807197987729462 0 -0.036720232664274481 -0.02705241681496336 0 -0.036663028993005005 -0.026518219815298543 0 -0.036411757659733146 -0.026938036419415123 0 -0.036663028993005005 -0.026518219815298543 0 -0.036054705733180099 -0.02618698554086871 0 -0.036411757659733146 -0.026938036419415123 0 -0.035999134879514991 -0.027224640217809275 0 -0.036054705733180099 -0.02618698554086871 0 -0.034999809420032446 -0.026717937115213457 0 -0.035999134879514991 -0.027224640217809275 0 -0.036054705733180099 -0.02618698554086871 0 -0.034999809420032446 -0.026717937115213457 0 -0.035578966669297815 -0.027704578056304101 0 -0.035999134879514991 -0.027224640217809275 0 -0.035578966669297815 -0.027704578056304101 0 -0.036175477117810308 -0.02797545506391769 0 -0.034999864825350675 -0.028815832375492765 0 -0.034999809420032446 -0.026717937115213457 0 -0.035578966669297815 -0.027704578056304101 0 -0.034999864825350675 -0.028815832375492765 0 -0.036470156056397529 -0.027332041129644217 0 -0.035999134879514991 -0.027224640217809275 0 -0.036175477117810308 -0.02797545506391769 0 -0.035578966669297815 -0.027704578056304101 0 -0.0