<?xml version="1.0"?>
<VTKFile type="UnstructuredGrid" version="0.1" byte_order="LittleEndian">
<UnstructuredGrid>
<Piece NumberOfPoints="31301" NumberOfCells="10957">
<Points>
<DataArray type="Float64" NumberOfComponents="3" format="ascii">
-0.5 -0.5 0 -0.46638663260497448 -0.45096699443765093 0 -0.4752875195671884 -0.42645049165647703 0 -0.5 -0.5 0 -0.45748574564276068 -0.47548349721882471 0 -0.46638663260497448 -0.45096699443765093 0 -0.5 -0.5 0 -0.45748574564276068 -0.47548349721882471 0 -0.44858485868054743 -0.49999999999999872 0 -0.44638705120756123 -0.47907182558991779 0 -0.43858978110863878 -0.48419188083360631 0 -0.43655704025590358 -0.46793682688149568 0 -0.45748574564276068 -0.47548349721882471 0 -0.44638705120756123 -0.47907182558991779 0 -0.45071783034995572 -0.46774692301566229 0 -0.44638705120756123 -0.47907182558991779 0 -0.45071783034995572 -0.46774692301566229 0 -0.43655704025590358 -0.46793682688149568 0 -0.45748574564276068 -0.47548349721882471 0 -0.44858485868054743 -0.49999999999999872 0 -0.44638705120756123 -0.47907182558991779 0 -0.43858978110863878 -0.48419188083360631 0 -0.44858485868054743 -0.49999999999999872 0 -0.45748574564276068 -0.47548349721882471 0 -0.44638705120756123 -0.47907182558991779 0 -0.44858485868054743 -0.49999999999999872 0 -0.43858978110863878 -0.48419188083360631 0 -0.44858485868054743 -0.49999999999999872 0 -0.43061719251594133 -0.50000000000000444 0 -0.44868503478737248 -0.44598917038306501 0 -0.43583338767575092 -0.43369267196034877 0 -0.43574456427468933 -0.44650494779330818 0 -0.44868503478737248 -0.44598917038306501 0 -0.44004111594584422 -0.45624936009898848 0 -0.43574456427468933 -0.44650494779330818 0 -0.44868503478737248 -0.44598917038306501 0 -0.45071783034995572 -0.46774692301566229 0 -0.44868503478737248 -0.44598917038306501 0 -0.44004111594584422 -0.45624936009898848 0 -0.45071783034995572 -0.46774692301566229 0 -0.44004111594584422 -0.45624936009898848 0 -0.45071783034995572 -0.46774692301566229 0 -0.43655704025590358 -0.46793682688149568 0 -0.45748574564276068 -0.47548349721882471 0 -0.45071783034995572 -0.46774692301566229 0 -0.46638663260497448 -0.45096699443765093 0 -0.45748574564276068 -0.47548349721882471 0 -0.46638663260497448 -0.45096699443765093 0 -0.44868503478737248 -0.44598917038306501 0 -0.45071783034995572 -0.46774692301566229 0 -0.46638663260497448 -0.45096699443765093 0 -0.46638663260497448 -0.45096699443765093 0 -0.4752875195671884 -0.42645049165647703 0 -0.45982653659801898 -0.43643022365340017 0 -0.44868503478737248 -0.44598917038306501 0 -0.46638663260497448 -0.45096699443765093 0 -0.45982653659801898 -0.43643022365340017 0 -0.46638663260497448 -0.45096699443765093 0 -0.4752875195671884 -0.42645049165647703 0 -0.5 -0.5 0 -0.4752875195671884 -0.42645049165647703 0 -0.5 -0.37994680708575929 0 -0.5 -0.37994680708575929 0 -0.45675460445725402 -0.3901296854313363 0 -0.46454068268534932 -0.36624217470093601 0 -0.4752875195671884 -0.42645049165647703 0 -0.5 -0.37994680708575929 0 -0.45675460445725402 -0.3901296854313363 0 -0.45675460445725402 -0.3901296854313363 0 -0.4422018499973413 -0.37659727799144932 0 -0.46454068268534932 -0.36624217470093601 0 -0.45675460445725402 -0.3901296854313363 0 -0.45074697470592878 -0.40470458864898901 0 -0.44461944366220629 -0.40247366511787042 0 -0.45074697470592878 -0.40470458864898901 0 -0.44461944366220629 -0.40247366511787042 0 -0.44461944366220629 -0.40247366511787042 0 -0.4422018499973413 -0.37659727799144932 0 -0.45675460445725402 -0.3901296854313363 0 -0.44461944366220629 -0.40247366511787042 0 -0.4422018499973413 -0.37659727799144932 0 -0.4752875195671884 -0.42645049165647703 0 -0.45675460445725402 -0.3901296854313363 0 -0.45074697470592878 -0.40470458864898901 0 -0.4752875195671884 -0.42645049165647703 0 -0.45982653659801898 -0.43643022365340017 0 -0.44665223922478953 -0.42423141775046769 0 -0.4752875195671884 -0.42645049165647703 0 -0.45074697470592878 -0.40470458864898901 0 -0.44665223922478953 -0.42423141775046769 0 -0.44461944366220629 -0.40247366511787042 0 -0.44665223922478953 -0.42423141775046769 0 -0.45074697470592878 -0.40470458864898901 0 -0.44461944366220629 -0.40247366511787042 0 -0.44665223922478953 -0.42423141775046769 0 -0.44461944366220629 -0.40247366511787042 0 -0.44665223922478953 -0.42423141775046769 0 -0.43190992604339917 -0.41146058259026358 0 -0.44665223922478953 -0.42423141775046769 0 -0.43583338767575092 -0.43369267196034877 0 -0.43179441525183287 -0.42341725705951538 0 -0.44868503478737248 -0.44598917038306501 0 -0.44665223922478953 -0.42423141775046769 0 -0.44868503478737248 -0.44598917038306501 0 -0.44665223922478953 -0.42423141775046769 0 -0.43583338767575092 -0.43369267196034877 0 -0.44868503478737248 -0.44598917038306501 0 -0.45982653659801898 -0.43643022365340017 0 -0.44665223922478953 -0.42423141775046769 0 -0.43583338767575092 -0.43369267196034877 0 -0.42139824175997731 -0.43005810479360151 0 -0.42440061003392793 -0.44176447442364009 0 -0.43179441525183287 -0.42341725705951538 0 -0.42224515979673422 -0.4177634137272877 0 -0.42139824175997731 -0.43005810479360151 0 -0.43583338767575092 -0.43369267196034877 0 -0.43179441525183287 -0.42341725705951538 0 -0.42139824175997731 -0.43005810479360151 0 -0.44665223922478953 -0.42423141775046769 0 -0.43179441525183287 -0.42341725705951538 0 -0.43190992604339917 -0.41146058259026358 0 -0.43190992604339917 -0.41146058259026358 0 -0.42224515979673422 -0.4177634137272877 0 -0.41973040802004191 -0.40709713166068501 0 -0.43179441525183287 -0.42341725705951538 0 -0.43190992604339917 -0.41146058259026358 0 -0.42224515979673422 -0.4177634137272877 0 -0.42224515979673422 -0.4177634137272877 0 -0.41437056647242948 -0.41338818489405371 0 -0.41272245210148961 -0.42103391996631812 0 -0.41973040802004191 -0.40709713166068501 0 -0.41437056647242948 -0.41338818489405371 0 -0.41159354162164608 -0.40714795687614203 0 -0.42224515979673422 -0.4177634137272877 0 -0.41973040802004191 -0.40709713166068501 0 -0.41437056647242948 -0.41338818489405371 0 -0.41159354162164608 -0.40714795687614203 0 -0.40880770822346801 -0.41347540877526212 0 -0.405112952370972 -0.40517584771015519 0 -0.41437056647242948 -0.41338818489405371 0 -0.41159354162164608 -0.40714795687614203 0 -0.40880770822346801 -0.41347540877526212 0 -0.40880770822346801 -0.41347540877526212 0 -0.41272245210148961 -0.42103391996631812 0 -0.40023902855080279 -0.42063113442964117 0 -0.41437056647242948 -0.41338818489405371 0 -0.40880770822346801 -0.41347540877526212 0 -0.41272245210148961 -0.42103391996631812 0 -0.41272245210148961 -0.42103391996631812 0 -0.41126030545594622 -0.43202220800462199 0 -0.40023902855080279 -0.42063113442964117 0 -0.41126030545594622 -0.43202220800462199 0 -0.40023902855080279 -0.42063113442964117 0 -0.41036508320584852 -0.44708742295309578 0 -0.41126030545594622 -0.43202220800462199 0 -0.42139824175997731 -0.43005810479360151 0 -0.41681480434218471 -0.4398092100823302 0 -0.42139824175997731 -0.43005810479360151 0 -0.42440061003392793 -0.44176447442364009 0 -0.41681480434218471 -0.4398092100823302 0 -0.42224515979673422 -0.4177634137272877 0 -0.41272245210148961 -0.42103391996631812 0 -0.42139824175997731 -0.43005810479360151 0 -0.41272245210148961 -0.42103391996631812 0 -0.41126030545594622 -0.43202220800462199 0 -0.42139824175997731 -0.43005810479360151 0 -0.4422018499973413 -0.37659727799144932 0 -0.42446809264834062 -0.3753320770450318 0 -0.42234390670551109 -0.39436354389442929 0 -0.43190992604339917 -0.41146058259026358 0 -0.41973040802004191 -0.40709713166068501 0 -0.42234390670551109 -0.39436354389442929 0 -0.44461944366220629 -0.40247366511787042 0 -0.43190992604339917 -0.41146058259026358 0 -0.42234390670551109 -0.39436354389442929 0 -0.44461944366220629 -0.40247366511787042 0 -0.4422018499973413 -0.37659727799144932 0 -0.42234390670551109 -0.39436354389442929 0 -0.44461944366220629 -0.40247366511787042 0 -0.42234390670551109 -0.39436354389442929 0 -0.42234390670551109 -0.39436354389442929 0 -0.4115574467008829 -0.39869852860455468 0 -0.40006836974881582 -0.38625342267098922 0 -0.41973040802004191 -0.40709713166068501 0 -0.42234390670551109 -0.39436354389442929 0 -0.4115574467008829 -0.39869852860455468 0 -0.41973040802004191 -0.40709713166068501 0 -0.41159354162164608 -0.40714795687614203 0 -0.4115574467008829 -0.39869852860455468 0 -0.4115574467008829 -0.39869852860455468 0 -0.40230818894741388 -0.39568539256312141 0 -0.405112952370972 -0.40517584771015519 0 -0.41159354162164608 -0.40714795687614203 0 -0.4115574467008829 -0.39869852860455468 0 -0.405112952370972 -0.40517584771015519 0 -0.42234390670551109 -0.39436354389442929 0 -0.413932837228626 -0.38103170464959779 0 -0.40006836974881582 -0.38625342267098922 0 -0.413932837228626 -0.38103170464959779 0 -0.40006836974881582 -0.38625342267098922 0 -0.40885097981183632 -0.36817777498794202 0 -0.42446809264834062 -0.3753320770450318 0 -0.42234390670551109 -0.39436354389442929 0 -0.413932837228626 -0.38103170464959779 0 -0.42234390670551109 -0.39436354389442929 0 -0.40006836974881582 -0.38625342267098922 0 -0.40006836974881582 -0.38625342267098922 0 -0.38741328428810612 -0.38164593431374128 0 -0.38926558404644362 -0.35919355171370199 0 -0.40006836974881582 -0.38625342267098922 0 -0.39745516787158269 -0.39094336719246509 0 -0.39951298741224928 -0.39248028101319049 0 -0.40006836974881582 -0.38625342267098922 0 -0.3953415595839625 -0.38861439195611841 0 -0.39745516787158269 -0.39094336719246509 0 -0.40006836974881582 -0.38625342267098922 0 -0.3953415595839625 -0.38861439195611841 0 -0.38741328428810612 -0.38164593431374128 0 -0.3953415595839625 -0.38861439195611841 0 -0.39227608070761327 -0.39179550925761591 0 -0.38741328428810612 -0.38164593431374128 0 -0.40006836974881582 -0.38625342267098922 0 -0.38741328428810612 -0.38164593431374128 0 -0.3953415595839625 -0.38861439195611841 0 -0.39514368495759311 -0.39208274393630921 0 -0.39745516787158269 -0.39094336719246509 0 -0.38811298669521599 -0.4012536930630222
[...]
<PointData Scalars="" Vectors="displacement," Tensors="">
<DataArray type="Float64" Name="displacement" NumberOfComponents="3" format="ascii">
2.5823460352451713e-07 -0.034998071814622958 0 0.0001450706152869714 -0.032046777037808671 0 0.00029831375703404811 -0.029769558441007263 0 2.5823460352451713e-07 -0.034998071814622958 0 7.9306924992135922e-06 -0.033821134039522645 0 0.0001450706152869714 -0.032046777037808671 0 2.5823460352451713e-07 -0.034998071814622958 0 7.9306924992135922e-06 -0.033821134039522645 0 -1.183374042930778e-07 -0.03499790693312084 0 -9.1975174257892796e-05 -0.033786120493472717 0 -6.9760613949077649e-05 -0.034295153297956918 0 0.0001140622492711379 -0.033951406774449355 0 -0.00014822934433032794 -0.032955788426406465 0 -9.1975174257892796e-05 -0.033786120493472717 0 0.0002065258522853918 -0.032997008602000458 0 -9.1975174257892796e-05 -0.033786120493472717 0 0.0002065258522853918 -0.032997008602000458 0 0.0001140622492711379 -0.033951406774449355 0 -1.0481139920885184e-05 -0.033341730262181367 0 -1.1993427104222915e-08 -0.03499938686610729 0 -9.1975174257892796e-05 -0.033786120493472717 0 -6.9760613949077649e-05 -0.034295153297956918 0 -6.9799565031990965e-07 -0.034998536573854225 0 -0.00014822934433032794 -0.032955788426406465 0 -9.1975174257892796e-05 -0.033786120493472717 0 -6.9799565031990965e-07 -0.034998536573854225 0 -6.9760613949077649e-05 -0.034295153297956918 0 -6.9799565031990965e-07 -0.034998536573854225 0 5.340140555237004e-08 -0.034998980973002497 0 0.00029904756364255265 -0.033843196990750474 0 9.5920556979086824e-05 -0.033917921142031029 0 0.00022719781257509478 -0.033871092059023764 0 0.00029904756364255265 -0.033843196990750474 0 0.00029156470164349847 -0.033769961712341763 0 0.00022719781257509478 -0.033871092059023764 0 0.00041672934122447675 -0.032221926656189094 0 4.1349422954098977e-05 -0.032791271275147742 0 0.00029904756364255265 -0.033843196990750474 0 0.00029156470164349847 -0.033769961712341763 0 0.0002065258522853918 -0.032997008602000458 0 0.00029156470164349847 -0.033769961712341763 0 0.0002065258522853918 -0.032997008602000458 0 0.0001140622492711379 -0.033951406774449355 0 -0.00014822934433032794 -0.032955788426406465 0 0.0002065258522853918 -0.032997008602000458 0 0.00081943992657234222 -0.030508658435358067 0 -1.0481139920885184e-05 -0.033341730262181367 0 0.00043402033556091041 -0.031295818836506215 0 0.00081437479955955743 -0.030625016802230638 0 0.0002065258522853918 -0.032997008602000458 0 0.00081943992657234222 -0.030508658435358067 0 0.00081943992657234222 -0.030508658435358067 0 0.00029831375703404811 -0.029769558441007263 0 0.00068523006909464591 -0.029890353250517337 0 0.00081437479955955743 -0.030625016802230638 0 0.00081943992657234222 -0.030508658435358067 0 0.00068523006909464591 -0.029890353250517337 0 0.00043402033556091041 -0.031295818836506215 0 0.00031532144395957117 -0.030047778992067065 0 2.5823460352451713e-07 -0.034998071814622958 0 0.00029831375703404811 -0.029769558441007263 0 3.7484548760668518e-08 -0.026596586594147181 0 3.7484548760668518e-08 -0.026596586594147181 0 0.00044262484754401974 -0.026727697339241664 0 -7.5005816466706558e-05 -0.025757034752328933 0 0.00029831375703404811 -0.029769558441007263 0 3.7484548760668518e-08 -0.026596586594147181 0 0.00044262484754401974 -0.026727697339241664 0 0.00044262484754401974 -0.026727697339241664 0 0.00044196823537409385 -0.024420823348039918 0 -7.5005816466706558e-05 -0.025757034752328933 0 0.00044262484754401974 -0.026727697339241664 0 0.00054252226890561439 -0.027617814777193772 0 0.00061919410595993646 -0.027050403184097249 0 0.00097480001315609964 -0.027510525630782084 0 0.0013953626817197284 -0.028090481242276609 0 0.0013953626817197284 -0.028090481242276609 0 0.00050605546303498551 -0.024149941424462616 0 0.00044262484754401974 -0.026727697339241664 0 0.00061919410595993646 -0.027050403184097249 0 0.00044196823537409385 -0.024420823348039918 0 0.00029831375703404811 -0.029769558441007263 0 0.00044262484754401974 -0.026727697339241664 0 0.00054252226890561439 -0.027617814777193772 0 0.00029831375703404811 -0.029769558441007263 0 0.00068523006909464591 -0.029890353250517337 0 0.0005356180504831041 -0.02885093453384081 0 0.00029831375703404811 -0.029769558441007263 0 0.00054252226890561439 -0.027617814777193772 0 0.0005356180504831041 -0.02885093453384081 0 0.0013953626817197284 -0.028090481242276609 0 -3.9035814784989405e-05 -0.031627946710231843 0 0.00054252226890561439 -0.027617814777193772 0 0.00056189176754141196 -0.027646693908107717 0 0.0005356180504831041 -0.02885093453384081 0 -0.00021424678022562778 -0.033988228270727311 0 -2.1677661941028848e-05 -0.034020229749312722 0 -0.00016976272771208515 -0.033942995821601561 0 -2.1677661941028848e-05 -0.034020229749312722 0 9.5920556979086824e-05 -0.033917921142031029 0 -4.7031091890766979e-05 -0.03393437805727198 0 0.00041672934122447675 -0.032221926656189094 0 -3.9035814784989405e-05 -0.031627946710231843 0 0.00029904756364255265 -0.033843196990750474 0 -2.1677661941028848e-05 -0.034020229749312722 0 9.5920556979086824e-05 -0.033917921142031029 0 0.00081437479955955743 -0.030625016802230638 0 0.00068523006909464591 -0.029890353250517337 0 0.0005356180504831041 -0.02885093453384081 0 9.5920556979086824e-05 -0.033917921142031029 0 -2.1830734527146524e-08 -0.033918827213524287 0 0.00013987656664153064 -0.033920201688848087 0 -4.7031091890766979e-05 -0.03393437805727198 0 -0.000140011994245002 -0.033926932448034457 0 -2.1830734527146524e-08 -0.033918827213524287 0 9.5920556979086824e-05 -0.033917921142031029 0 -4.7031091890766979e-05 -0.03393437805727198 0 -2.1830734527146524e-08 -0.033918827213524287 0 -2.1677661941028848e-05 -0.034020229749312722 0 -4.7031091890766979e-05 -0.03393437805727198 0 -0.00016976272771208515 -0.033942995821601561 0 -0.00016976272771208515 -0.033942995821601561 0 -0.000140011994245002 -0.033926932448034457 0 -0.00024649436553496871 -0.033927034811166296 0 -4.7031091890766979e-05 -0.03393437805727198 0 -0.00016976272771208515 -0.033942995821601561 0 -0.000140011994245002 -0.033926932448034457 0 -0.000140011994245002 -0.033926932448034457 0 -0.00021746167286217365 -0.03392572348361448 0 -0.00013897044252066199 -0.033908353216908611 0 -0.00024649436553496871 -0.033927034811166296 0 -0.00021746167286217365 -0.03392572348361448 0 -0.00028678659630657527 -0.033943779355697888 0 -0.000140011994245002 -0.033926932448034457 0 -0.00024649436553496871 -0.033927034811166296 0 -0.00021746167286217365 -0.03392572348361448 0 -0.00028678659630657527 -0.033943779355697888 0 -0.00024237889665202546 -0.03391893281965553 0 -0.00033975547866253372 -0.033984257104978301 0 -0.00021746167286217365 -0.03392572348361448 0 -0.00028678659630657527 -0.033943779355697888 0 -0.00024237889665202546 -0.03391893281965553 0 -0.00024237889665202546 -0.03391893281965553 0 -0.00013897044252066199 -0.033908353216908611 0 -0.00018631605498398328 -0.033815179991877421 0 -0.00021746167286217365 -0.03392572348361448 0 -0.00024237889665202546 -0.03391893281965553 0 -0.00013897044252066199 -0.033908353216908611 0 -0.00013897044252066199 -0.033908353216908611 0 -1.0387602415847626e-05 -0.033888714084211589 0 -0.00018631605498398328 -0.033815179991877421 0 -1.0387602415847626e-05 -0.033888714084211589 0 -0.00018631605498398328 -0.033815179991877421 0 0.00017303253191241816 -0.033889255119494005 0 -1.0387602415847626e-05 -0.033888714084211589 0 -2.1830734527146524e-08 -0.033918827213524287 0 9.6630255248992517e-05 -0.033913948818567984 0 -2.1830734527146524e-08 -0.033918827213524287 0 0.00013987656664153064 -0.033920201688848087 0 9.6630255248992517e-05 -0.033913948818567984 0 -0.000140011994245002 -0.033926932448034457 0 -0.00013897044252066199 -0.033908353216908611 0 -2.1830734527146524e-08 -0.033918827213524287 0 -0.00013897044252066199 -0.033908353216908611 0 -1.0387602415847626e-05 -0.033888714084211589 0 -2.1830734527146524e-08 -0.033918827213524287 0 0.00044196823537409385 -0.024420823348039918 0 0.00052663813112409504 -0.022307076277502846 0 0.0023006152430126068 -0.022203397707505804 0 -0.00016976272771208515 -0.033942995821601561 0 -0.00024649436553496871 -0.033927034811166296 0 -0.00028754418412470808 -0.033897467384974338 0 -0.00021424678022562778 -0.033988228270727311 0 -0.00016976272771208515 -0.033942995821601561 0 -0.00028754418412470808 -0.033897467384974338 0 0.0032119540920780253 -0.02469363320665291 0 0.00044196823537409385 -0.024420823348039918 0 0.0023006152430126068 -0.022203397707505804 0 0.0013953626817197284 -0.028090481242276609 0 0.0011266882170768231 -0.028318662199939948 0 -0.00028754418412470808 -0.033897467384974338 0 -0.0003288081242702989 -0.033957544223532823 0 -0.00035008899239114959 -0.034038904716471717 0 -0.00024649436553496871 -0.033927034811166296 0 -0.00028754418412470808 -0.033897467384974338 0 -0.0003288081242702989 -0.033957544223532823 0 -0.00024649436553496871 -0.033927034811166296 0 -0.00028678659630657527 -0.033943779355697888 0 -0.0003288081242702989 -0.033957544223532823 0 -0.0003288081242702989 -0.033957544223532823 0 -0.00038795146741969435 -0.034039722645769432 0 -0.00033975547866253372 -0.033984257104978301 0 -0.00028678659630657527 -0.033943779355697888 0 -0.0003288081242702989 -0.033957544223532823 0 -0.00033975547866253372 -0.033984257104978301 0 0.0023006152430126068 -0.022203397707505804 0 0.0010554140629578806 -0.021529614116443836 0 0.0013176969061120276 -0.020626010677380825 0 0.0010554140629578806 -0.021529614116443836 0 0.0013176969061120276 -0.020626010677380825 0 0.00023773412579841213 -0.021138464496532013 0 0.00052663813112409504 -0.022307076277502846 0 0.0023006152430126068 -0.022203397707505804 0 0.0010554140629578806 -0.021529614116443836 0 0.0011266882170768231 -0.028318662199939948 0 -0.00032098160717711904 -0.027511159736106704 0 -0.00037418745672687485 -0.027935486860852451 0 -0.00049936420052582194 -0.027602534914838377 0 -0.0011002311365218181 -0.027622273895418346 0 -0.00035008899239114959 -0.034038904716471717 0 -0.00041166853575065815 -0.034111367494725868 0 -0.00039909664877853078 -0.034075672463259488 0 -0.00035008899239114959 -0.034038904716471717 0 -0.00040287559904916495 -0.034154161894920036 0 -0.00041166853575065815 -0.034111367494725868 0 -0.00035008899239114959 -0.034038904716471717 0 -0.00040287559904916495 -0.034154161894920036 0 -0.00025350257301062903 -0.034357894753948508 0 -0.00040287559904916495 -0.034154161894920036 0 -0.00051258201680361084 -0.034245754449325032 0 -0.00025350257301062903 -0.034357894753948508 0 -0.00032098160717711904 -0.027511159736106704 0 -0.0012087513963923728 -0.032361909590945148 0 -0.00040287559904916495 -0.034154161894920036 0 -0.00045711188922142578 -0.034170812494873873 0 -0.00041166853575065815 -0.034111367494725868 0 -0.00043159565996617221 -0.034363258984408465 0 -0.00053508160543050117 -0.034301969090608599 0 -8.5171813842758621e-05 -0.034705607661989955 0 -0.00045636429866658697 -0.034152779947230497 0 -0.00053508160543050117 -0.034301969090608599 0 -0.00018631605498398328 -0.033815179991877421 0 -0.00048272182462907382 -0.034206029489433895 0 -0.00051258201680361084 -0.034245754449325032 0 -0.00045711188922142578 -0.034170812494873873 0 -0.00040287559904916495 -0.034154161894920036 0 -0.00051258201680361084 -0.034245754449325032 0 -0.00045711188922142578 -0.034170812494873873 0 -0.00048272182462907382 -0.034206029489433895 0 -0.00051258201680361084 -0.034245754449325032 0 -0.00053508160543050117 -0.034301969090608599 0 -0.00048272182462907382 -0.034206029489433895 0 -0.00045636429866658697 -0.034152779947230497 0 -0.00053508160543050117 -0.034301969090608599 0 -0.00048272182462907382 -0.034206029489433895 0 -0.00045636429866658697 -0.034152779947230497 0 -0.00044220955060513884 -0.034135173391435243 0 -0.00045636429866658697 -0.034152779947230497 0 -0.00044220955060513884 -0.034135173391435243 0 -0.00041913921926265037 -0.03408780198675939 0 -0.00044220955060513884 -0.034135173391435243 0 -0.00039909664877853078 -0.034075672463259488 0 -0.00041913921926265037 -0.03408780198675939 0 -0.00048272182462907382 -0.034206029489433895 0 -0.00044220955060513884 -0.034135173391435243 0 -0.00045711188922142578 -0.034170812494873873 0 -0.00044220955060513884 -0.034135173391435243 0 -0.00045711188922142578 -0.034170812494873873 0 -0.00041166853575065815 -0.034111367494725868 0 -0.00044220955060513884 -0.034135173391435243 0 -0.00041166853575065815 -0.034111367494725868 0 -0.00039909664877853078 -0.034075672463259488 0 -0.00035008899239114959 -0.034038904716471717 0 -0.00039909664877853078 -0.034075672463259488 0 -0.00038795146741969435 -0.034039722645769432 0 -0.0003288081242702989 -0.033957544223532823 0 -0.00035008899239114959 -0.034038904716471717 0 -0.00038795146741969435 -0.034039722645769432 0 -0.00039909664877853078 -0.034075672463259488 0 -0.00038795146741969435 -0.034039722645769432 0 -0.00041913921926265037 -0.03408780198675939 0 -0.00045636429866658697 -0.034152779947230497 0 -0.00041913921926265037 -0.03408780198675939 0 -0.00037701176721900313 -0.034033851966764936 0 -0.00038795146741969435 -0.034039722645769432 0 -0.00041913921926265037 -0.03408780198675939 0 -0.00037701176721900313 -0.034033851966764936 0 -0.00038795146741969435 -0.034039722645769432 0 -0.00033975547866253372 -0.033984257104978301 0 -0.00037701176721900313 -0.034033851966764936 0 -0.00043159565996617221 -0.034363258984408465 0 -0.0005731984916593992 -0.034216299889950869 0 -0.00033124097486204673 -0.034401561273776256 0 -0.0005731984916593992 -0.034216299889950869 0 -0.00033124097486204673 -0.034401561273776256 0 -0.00023141839851285105 -0.034353997113617543 0 -0.0005731984916593992 -0.034216299889950869 0 -0.00023141839851285105 -0.034353997113617543 0 -0.00060811725903251704 -0.033932985793525022 0 -0.0005731984916593992 -0.034216299889950869 0 -0.0007830312240104223 -0.034181907246538801 0 -0.00060811725903251704 -0.033932985793525022 0 -0.0005731984916593992 -0.034216299889950869 0 -0.00058128791200730767 -0.034288940713222298 0 -0.0007830312240104223 -0.034181907246538801 0 -0.00058128791200730767 -0.034288940713222298 0 -0.00055745966110853321 -0.034354585634407589 0 -0.0007830312240104223 -0.034181907246538801 0 -0.00043159565996617221 -0.034363258984408465 0 -0.0005731984916593992 -0.034216299889950869 0 -0.00058128791200730767 -0.034288940713222298 0 -0.00043159565996617221 -0.034363258984408465 0 -0.00058128791200730767 -0.034288940713222298 0 -0.00053508160543050117 -0.034301969090608599 0 -0.00058128791200730767 -0.034288940713222298 0 -0.00053508160543050117 -0.034301969090608599 0 -0.00055745966110853321 -0.034354585634407589 0 -0.00051258201680361084 -0.034245754449325032 0 -0.00053508160543050117 -0.034301969090608599 0 -0.00055745966110853321 -0.034354585634407589 0 -0.0007830312240104223 -0.034181907246538801 0 -0.0009982557651268347 -0.034403648280465292 0 -0.0014456152813823312 -0.033795077542992172 0 -0.0012087513963923728 -0.032361909590945148 0 -0.0017006328165332695 -0.033388293741107043 0 -0.00039757570153168583 -0.033592303609136495 0 -0.0012087513963923728 -0.032361909590945148 0 -0.00055745966110853321 -0.034354585634407589 0 -0.0007830312240104223 -0.034181907246538801 0 -0.0009982557651268347 -0.034403648280465292 0 -0.00051258201680361084 -0.034245754449325032 0 -0.00055745966110853321 -0.034354585634407589 0 -0.00025350257301062903 -0.034357894753948508 0 -0.00012682022161405936 -0.034284301493751661 0 0.00012854890220395884 -0.034383033455247826 0 1.9957283627691927e-06 -0.034707634616027411 0 -8.5171813842758621e-05 -0.034705607661989955 0 9.8549088173363408e-05 -0.034870395163676252 0 1.9957283627691927e-06 -0.034707634616027411 0 -8.5171813842758621e-05 -0.034705607661989955 0 -2.1959901320163349e-05 -0.03455237487014267 0 1.9957283627691927e-06 -0.034707634616027411 0 -2.1959901320163349e-05 -0.03455237487014267 0 5.3003826067630031e-05 -0.034610513881235247 0 1.9957283627691927e-06 -0.034707634616027411 0 5.3003826067630031e-05 -0.034610513881235247 0 9.2519556895931265e-05 -0.034668118928886181 0 -0.00043159565996617221 -0.034363258984408465 0 -8.5171813842758621e-05 -0.034705607661989955 0 -0.00033124097486204673 -0.034401561273776256 0 -0.00033975547866253372 -0.033984257104978301 0 -0.00037701176721900313 -0.034033851966764936 0 -0.00018631605498398328 -0.033815179991877421 0 -0.00045636429866658697 -0.034152779947230497 0 -0.00037701176721900313 -0.034033851966764936 0 -0.00018631605498398328 -0.033815179991877421 0 -0.000467975943621367 -0.034291630007439844 0 -0.00012682022161405936 -0.034284301493751661 0 -0.00024237889665202546 -0.03391893281965553 0 -0.00033975547866253372 -0.033984257104978301 0 -0.00018631605498398328 -0.033815179991877421 0 -0.00023141839851285105 -0.034353997113617543 0 -2.6298706165255975e-05 -0.034386700867366199 0 -2.1959901320163349e-05 -0.03455237487014267 0 -8.5171813842758621e-05 -0.034705607661989955 0 -0.00033124097486204673 -0.034401561273776256 0 -0.00023141839851285105 -0.034353997113617543 0 -8.5171813842758621e-05 -0.034705607661989955 0 -0.00023141839851285105 -0.034353997113617543 0 -2.1959901320163349e-05 -0.03455237487014267 0 -0.00023141839851285105 -0.034353997113617543 0 -2.6298706165255975e-05 -0.034386700867366199 0 3.3998584177991322e-05 -0.034219425236128143 0 -2.6298706165255975e-05 -0.034386700867366199 0 5.1189989268458432e-05 -0.034506428385834856 0 0.00012276640037381427 -0.03442288877208137 0 -2.6298706165255975e-05 -0.034386700867366199 0 -2.1959901320163349e-05 -0.03455237487014267 0 5.1189989268458432e-05 -0.034506428385834856 0 5.3003826067630031e-05 -0.034610513881235247 0 5.1189989268458432e-05 -0.034506428385834856 0 0.00011639129073108145 -0.034585956885272551 0 -2.1959901320163349e-05 -0.03455237487014267 0 5.3003826067630031e-05 -0.034610513881235247 0 5.1189989268458432e-05 -0.034506428385834856 0 5.1189989268458432e-05 -0.034506428385834856 0 0.00011639129073108145 -0.034585956885272551 0 0.00012276640037381427 -0.03442288877208137 0 0.00011639129073108145 -0.034585956885272551 0 9.2519556895931265e-05 -0.034668118928886181 0 0.00011408546515246512 -0.034713393090564086 0 5.3003826067630031e-05 -0.034610513881235247 0 0.00011639129073108145 -0.034585956885272551 0 9.2519556895931265e-05 -0.034668118928886181 0 1.9957283627691927e-06 -0.034707634616027411 0 9.2519556895931265e-05 -0.034668118928886181 0 0.00012051422902273707 -0.034746712540383529 0 1.9957283627691927e-06 -0.034707634616027411 0 0.00010827478211319426 -0.034868670222727813 0 9.8549088173363408e-05 -0.034870395163676252 0 2.5355538170168903e-06 -0.034724413273847204 0 0.00010324765744109008 -0.034806805961762693 0 9.2519556895931265e-05 -0.034668118928886181 0 0.00012051422902273707 -0.034746712540383529 0 0.00011408546515246512 -0.034713393090564086 0 0.00012051422902273707 -0.034746712540383529 0 9.5005235768712309e-05 -0.034792161363771223 0 6.5360638376888892e-05 -0.034850719550650715 0 0.00010324765744109008 -0.034806805961762693 0 6.6429160126674572e-05 -0.034904273829607577 0 0.00012051422902273707 -0.034746712540383529 0 9.5005235768712309e-05 -0.034792161363771223 0 0.00011408546515246512 -0.034713393090564086 0 9.5005235768712309e-05 -0.034792161363771223 0 9.1105832427921735e-05 -0.034782310782264292 0 0.00011408546515246512 -0.034713393090564086 0 9.1105832427921735e-05 -0.034782310782264292 0 0.00011408546515246512 -0.034713393090564086 0 0.00011099834846412965 -0.034691288589900025 0 0.00011639129073108145 -0.034585956885272551 0 0.00011408546515246512 -0.034713393090564086 0 0.00011099834846412965 -0.034691288589900025 0 9.1105832427921735e-05 -0.034782310782264292 0 0.00011099834846412965 -0.034691288589900025 0 5.3154264834585353e-05 -0.034841829261442671 0 9.1105832427921735e-05 -0.034782310782264292 0 5.7321242421873546e-05 -0.034866870894171065 0 5.3154264834585353e-05 -0.034841829261442671 0 5.9260361644996904e-08 -0.034999789536672155 0 5.7321242421873546e-