<?xml version="1.0"?>
<VTKFile type="UnstructuredGrid" version="0.1" byte_order="LittleEndian">
<UnstructuredGrid>
<Piece NumberOfPoints="31301" NumberOfCells="10957">
<Points>
<DataArray type="Float64" NumberOfComponents="3" format="ascii">
-0.5 -0.5 0 -0.46638663260497448 -0.45096699443765093 0 -0.4752875195671884 -0.42645049165647703 0 -0.5 -0.5 0 -0.45748574564276068 -0.47548349721882471 0 -0.46638663260497448 -0.45096699443765093 0 -0.5 -0.5 0 -0.45748574564276068 -0.47548349721882471 0 -0.44858485868054743 -0.49999999999999872 0 -0.44638705120756123 -0.47907182558991779 0 -0.43858978110863878 -0.48419188083360631 0 -0.43655704025590358 -0.46793682688149568 0 -0.45748574564276068 -0.47548349721882471 0 -0.44638705120756123 -0.47907182558991779 0 -0.45071783034995572 -0.46774692301566229 0 -0.44638705120756123 -0.47907182558991779 0 -0.45071783034995572 -0.46774692301566229 0 -0.43655704025590358 -0.46793682688149568 0 -0.45748574564276068 -0.47548349721882471 0 -0.44858485868054743 -0.49999999999999872 0 -0.44638705120756123 -0.47907182558991779 0 -0.43858978110863878 -0.48419188083360631 0 -0.44858485868054743 -0.49999999999999872 0 -0.45748574564276068 -0.47548349721882471 0 -0.44638705120756123 -0.47907182558991779 0 -0.44858485868054743 -0.49999999999999872 0 -0.43858978110863878 -0.48419188083360631 0 -0.44858485868054743 -0.49999999999999872 0 -0.43061719251594133 -0.50000000000000444 0 -0.44868503478737248 -0.44598917038306501 0 -0.43583338767575092 -0.43369267196034877 0 -0.43574456427468933 -0.44650494779330818 0 -0.44868503478737248 -0.44598917038306501 0 -0.44004111594584422 -0.45624936009898848 0 -0.43574456427468933 -0.44650494779330818 0 -0.44868503478737248 -0.44598917038306501 0 -0.45071783034995572 -0.46774692301566229 0 -0.44868503478737248 -0.44598917038306501 0 -0.44004111594584422 -0.45624936009898848 0 -0.45071783034995572 -0.46774692301566229 0 -0.44004111594584422 -0.45624936009898848 0 -0.45071783034995572 -0.46774692301566229 0 -0.43655704025590358 -0.46793682688149568 0 -0.45748574564276068 -0.47548349721882471 0 -0.45071783034995572 -0.46774692301566229 0 -0.46638663260497448 -0.45096699443765093 0 -0.45748574564276068 -0.47548349721882471 0 -0.46638663260497448 -0.45096699443765093 0 -0.44868503478737248 -0.44598917038306501 0 -0.45071783034995572 -0.46774692301566229 0 -0.46638663260497448 -0.45096699443765093 0 -0.46638663260497448 -0.45096699443765093 0 -0.4752875195671884 -0.42645049165647703 0 -0.45982653659801898 -0.43643022365340017 0 -0.44868503478737248 -0.44598917038306501 0 -0.46638663260497448 -0.45096699443765093 0 -0.45982653659801898 -0.43643022365340017 0 -0.46638663260497448 -0.45096699443765093 0 -0.4752875195671884 -0.42645049165647703 0 -0.5 -0.5 0 -0.4752875195671884 -0.42645049165647703 0 -0.5 -0.37994680708575929 0 -0.5 -0.37994680708575929 0 -0.45675460445725402 -0.3901296854313363 0 -0.46454068268534932 -0.36624217470093601 0 -0.4752875195671884 -0.42645049165647703 0 -0.5 -0.37994680708575929 0 -0.45675460445725402 -0.3901296854313363 0 -0.45675460445725402 -0.3901296854313363 0 -0.4422018499973413 -0.37659727799144932 0 -0.46454068268534932 -0.36624217470093601 0 -0.45675460445725402 -0.3901296854313363 0 -0.45074697470592878 -0.40470458864898901 0 -0.44461944366220629 -0.40247366511787042 0 -0.45074697470592878 -0.40470458864898901 0 -0.44461944366220629 -0.40247366511787042 0 -0.44461944366220629 -0.40247366511787042 0 -0.4422018499973413 -0.37659727799144932 0 -0.45675460445725402 -0.3901296854313363 0 -0.44461944366220629 -0.40247366511787042 0 -0.4422018499973413 -0.37659727799144932 0 -0.4752875195671884 -0.42645049165647703 0 -0.45675460445725402 -0.3901296854313363 0 -0.45074697470592878 -0.40470458864898901 0 -0.4752875195671884 -0.42645049165647703 0 -0.45982653659801898 -0.43643022365340017 0 -0.44665223922478953 -0.42423141775046769 0 -0.4752875195671884 -0.42645049165647703 0 -0.45074697470592878 -0.40470458864898901 0 -0.44665223922478953 -0.42423141775046769 0 -0.44461944366220629 -0.40247366511787042 0 -0.44665223922478953 -0.42423141775046769 0 -0.45074697470592878 -0.40470458864898901 0 -0.44461944366220629 -0.40247366511787042 0 -0.44665223922478953 -0.42423141775046769 0 -0.44461944366220629 -0.40247366511787042 0 -0.44665223922478953 -0.42423141775046769 0 -0.43190992604339917 -0.41146058259026358 0 -0.44665223922478953 -0.42423141775046769 0 -0.43583338767575092 -0.43369267196034877 0 -0.43179441525183287 -0.42341725705951538 0 -0.44868503478737248 -0.44598917038306501 0 -0.44665223922478953 -0.42423141775046769 0 -0.44868503478737248 -0.44598917038306501 0 -0.44665223922478953 -0.42423141775046769 0 -0.43583338767575092 -0.43369267196034877 0 -0.44868503478737248 -0.44598917038306501 0 -0.45982653659801898 -0.43643022365340017 0 -0.44665223922478953 -0.42423141775046769 0 -0.43583338767575092 -0.43369267196034877 0 -0.42139824175997731 -0.43005810479360151 0 -0.42440061003392793 -0.44176447442364009 0 -0.43179441525183287 -0.42341725705951538 0 -0.42224515979673422 -0.4177634137272877 0 -0.42139824175997731 -0.43005810479360151 0 -0.43583338767575092 -0.43369267196034877 0 -0.43179441525183287 -0.42341725705951538 0 -0.42139824175997731 -0.43005810479360151 0 -0.44665223922478953 -0.42423141775046769 0 -0.43179441525183287 -0.42341725705951538 0 -0.43190992604339917 -0.41146058259026358 0 -0.43190992604339917 -0.41146058259026358 0 -0.42224515979673422 -0.4177634137272877 0 -0.41973040802004191 -0.40709713166068501 0 -0.43179441525183287 -0.42341725705951538 0 -0.43190992604339917 -0.41146058259026358 0 -0.42224515979673422 -0.4177634137272877 0 -0.42224515979673422 -0.4177634137272877 0 -0.41437056647242948 -0.41338818489405371 0 -0.41272245210148961 -0.42103391996631812 0 -0.41973040802004191 -0.40709713166068501 0 -0.41437056647242948 -0.41338818489405371 0 -0.41159354162164608 -0.40714795687614203 0 -0.42224515979673422 -0.4177634137272877 0 -0.41973040802004191 -0.40709713166068501 0 -0.41437056647242948 -0.41338818489405371 0 -0.41159354162164608 -0.40714795687614203 0 -0.40880770822346801 -0.41347540877526212 0 -0.405112952370972 -0.40517584771015519 0 -0.41437056647242948 -0.41338818489405371 0 -0.41159354162164608 -0.40714795687614203 0 -0.40880770822346801 -0.41347540877526212 0 -0.40880770822346801 -0.41347540877526212 0 -0.41272245210148961 -0.42103391996631812 0 -0.40023902855080279 -0.42063113442964117 0 -0.41437056647242948 -0.41338818489405371 0 -0.40880770822346801 -0.41347540877526212 0 -0.41272245210148961 -0.42103391996631812 0 -0.41272245210148961 -0.42103391996631812 0 -0.41126030545594622 -0.43202220800462199 0 -0.40023902855080279 -0.42063113442964117 0 -0.41126030545594622 -0.43202220800462199 0 -0.40023902855080279 -0.42063113442964117 0 -0.41036508320584852 -0.44708742295309578 0 -0.41126030545594622 -0.43202220800462199 0 -0.42139824175997731 -0.43005810479360151 0 -0.41681480434218471 -0.4398092100823302 0 -0.42139824175997731 -0.43005810479360151 0 -0.42440061003392793 -0.44176447442364009 0 -0.41681480434218471 -0.4398092100823302 0 -0.42224515979673422 -0.4177634137272877 0 -0.41272245210148961 -0.42103391996631812 0 -0.42139824175997731 -0.43005810479360151 0 -0.41272245210148961 -0.42103391996631812 0 -0.41126030545594622 -0.43202220800462199 0 -0.42139824175997731 -0.43005810479360151 0 -0.4422018499973413 -0.37659727799144932 0 -0.42446809264834062 -0.3753320770450318 0 -0.42234390670551109 -0.39436354389442929 0 -0.43190992604339917 -0.41146058259026358 0 -0.41973040802004191 -0.40709713166068501 0 -0.42234390670551109 -0.39436354389442929 0 -0.44461944366220629 -0.40247366511787042 0 -0.43190992604339917 -0.41146058259026358 0 -0.42234390670551109 -0.39436354389442929 0 -0.44461944366220629 -0.40247366511787042 0 -0.4422018499973413 -0.37659727799144932 0 -0.42234390670551109 -0.39436354389442929 0 -0.44461944366220629 -0.40247366511787042 0 -0.42234390670551109 -0.39436354389442929 0 -0.42234390670551109 -0.39436354389442929 0 -0.4115574467008829 -0.39869852860455468 0 -0.40006836974881582 -0.38625342267098922 0 -0.41973040802004191 -0.40709713166068501 0 -0.42234390670551109 -0.39436354389442929 0 -0.4115574467008829 -0.39869852860455468 0 -0.41973040802004191 -0.40709713166068501 0 -0.41159354162164608 -0.40714795687614203 0 -0.4115574467008829 -0.39869852860455468 0 -0.4115574467008829 -0.39869852860455468 0 -0.40230818894741388 -0.39568539256312141 0 -0.405112952370972 -0.40517584771015519 0 -0.41159354162164608 -0.40714795687614203 0 -0.4115574467008829 -0.39869852860455468 0 -0.405112952370972 -0.40517584771015519 0 -0.42234390670551109 -0.39436354389442929 0 -0.413932837228626 -0.38103170464959779 0 -0.40006836974881582 -0.38625342267098922 0 -0.413932837228626 -0.38103170464959779 0 -0.40006836974881582 -0.38625342267098922 0 -0.40885097981183632 -0.36817777498794202 0 -0.42446809264834062 -0.3753320770450318 0 -0.42234390670551109 -0.39436354389442929 0 -0.413932837228626 -0.38103170464959779 0 -0.42234390670551109 -0.39436354389442929 0 -0.40006836974881582 -0.38625342267098922 0 -0.40006836974881582 -0.38625342267098922 0 -0.38741328428810612 -0.38164593431374128 0 -0.38926558404644362 -0.35919355171370199 0 -0.40006836974881582 -0.38625342267098922 0 -0.39745516787158269 -0.39094336719246509 0 -0.39951298741224928 -0.39248028101319049 0 -0.40006836974881582 -0.38625342267098922 0 -0.3953415595839625 -0.38861439195611841 0 -0.39745516787158269 -0.39094336719246509 0 -0.40006836974881582 -0.38625342267098922 0 -0.3953415595839625 -0.38861439195611841 0 -0.38741328428810612 -0.38164593431374128 0 -0.3953415595839625 -0.38861439195611841 0 -0.39227608070761327 -0.39179550925761591 0 -0.38741328428810612 -0.38164593431374128 0 -0.40006836974881582 -0.38625342267098922 0 -0.38741328428810612 -0.38164593431374128 0 -0.3953415595839625 -0.38861439195611841 0 -0.39514368495759311 -0.39208274393630921 0 -0.39745516787158269 -0.39094336719246509 0 -0.38811298669521599 -0.4012536930630222
[...]
<PointData Scalars="" Vectors="displacement," Tensors="">
<DataArray type="Float64" Name="displacement" NumberOfComponents="3" format="ascii">
-0.034995817091654675 -1.4956122759928332e-06 0 -0.03451844732989709 -7.0331392324512979e-05 0 -0.034673403325937067 -0.00012253941400552641 0 -0.034995817091654675 -1.4956122759928332e-06 0 -0.03384050857213227 6.5036228410158252e-05 0 -0.03451844732989709 -7.0331392324512979e-05 0 -0.034995817091654675 -1.4956122759928332e-06 0 -0.03384050857213227 6.5036228410158252e-05 0 -0.031407940921750269 2.2724519530255058e-06 0 -0.030037386878814722 0.00062406349770092822 0 -0.030254863902238312 0.000144306304270062 0 -0.02961406858488648 0.0004991943306286087 0 -0.029690182106246146 0.0010082637872961457 0 -0.030037386878814722 0.00062406349770092822 0 -0.030001780740498737 0.001321988636385758 0 -0.030037386878814722 0.00062406349770092822 0 -0.030001780740498737 0.001321988636385758 0 -0.02961406858488648 0.0004991943306286087 0 -0.031812323857750673 0.00044046588827110014 0 -0.031401079413440815 2.4833098053733818e-07 0 -0.030037386878814722 0.00062406349770092822 0 -0.030254863902238312 0.000144306304270062 0 -0.03139642764178411 2.1237543182539023e-06 0 -0.029690182106246146 0.0010082637872961457 0 -0.030037386878814722 0.00062406349770092822 0 -0.03139642764178411 2.1237543182539023e-06 0 -0.030254863902238312 0.000144306304270062 0 -0.03139642764178411 2.1237543182539023e-06 0 -0.030147534782460923 -1.0934348584828204e-06 0 -0.027526510464302829 0.0020872634117242161 0 -0.026128644577844411 0.0010390856322785461 0 -0.027547502642619293 0.00083362270901957895 0 -0.027526510464302829 0.0020872634117242161 0 -0.028632047120761582 0.00096518740978609942 0 -0.027547502642619293 0.00083362270901957895 0 -0.030165690029460603 0.0016979622084953598 0 -0.029908120884941623 0.001436171401411529 0 -0.027526510464302829 0.0020872634117242161 0 -0.028632047120761582 0.00096518740978609942 0 -0.030001780740498737 0.001321988636385758 0 -0.028632047120761582 0.00096518740978609942 0 -0.030001780740498737 0.001321988636385758 0 -0.02961406858488648 0.0004991943306286087 0 -0.029690182106246146 0.0010082637872961457 0 -0.030001780740498737 0.001321988636385758 0 -0.032141338053716953 -0.00021989547624053809 0 -0.031812323857750673 0.00044046588827110014 0 -0.033335853702429329 -6.9239305968904204e-05 0 -0.032737093968515624 0.0014953680452803647 0 -0.030001780740498737 0.001321988636385758 0 -0.032141338053716953 -0.00021989547624053809 0 -0.032141338053716953 -0.00021989547624053809 0 -0.034673403325937067 -0.00012253941400552641 0 -0.033642719554860527 0.0005014420829950988 0 -0.032737093968515624 0.0014953680452803647 0 -0.032141338053716953 -0.00021989547624053809 0 -0.033642719554860527 0.0005014420829950988 0 -0.033335853702429329 -6.9239305968904204e-05 0 -0.034523543370813932 -0.00017820254267604307 0 -0.034995817091654675 -1.4956122759928332e-06 0 -0.034673403325937067 -0.00012253941400552641 0 -0.03500032877291983 1.5995309523639647e-07 0 -0.03500032877291983 1.5995309523639647e-07 0 -0.035025074947399329 0.00013217470132702059 0 -0.03500108470693146 4.0300071365146103e-05 0 -0.034673403325937067 -0.00012253941400552641 0 -0.03500032877291983 1.5995309523639647e-07 0 -0.035025074947399329 0.00013217470132702059 0 -0.035025074947399329 0.00013217470132702059 0 -0.035030945096909724 -0.00012147602139562968 0 -0.03500108470693146 4.0300071365146103e-05 0 -0.035025074947399329 0.00013217470132702059 0 -0.034906682662237093 0.00036638167641457636 0 -0.034938466469017777 0.00030268209368120361 0 -0.03304119270600455 0.0007457475695836121 0 -0.03176689045884247 -1.6873105736351338e-05 0 -0.03176689045884247 -1.6873105736351338e-05 0 -0.036391013300993154 -7.2098707392563393e-06 0 -0.035025074947399329 0.00013217470132702059 0 -0.034938466469017777 0.00030268209368120361 0 -0.035030945096909724 -0.00012147602139562968 0 -0.034673403325937067 -0.00012253941400552641 0 -0.035025074947399329 0.00013217470132702059 0 -0.034906682662237093 0.00036638167641457636 0 -0.034673403325937067 -0.00012253941400552641 0 -0.033642719554860527 0.0005014420829950988 0 -0.034343900288022325 0.00090153200865987851 0 -0.034673403325937067 -0.00012253941400552641 0 -0.034906682662237093 0.00036638167641457636 0 -0.034343900288022325 0.00090153200865987851 0 -0.03176689045884247 -1.6873105736351338e-05 0 -0.029133414617163123 0.0016082353539805876 0 -0.034906682662237093 0.00036638167641457636 0 -0.034963908996653914 0.00054405786524249313 0 -0.034343900288022325 0.00090153200865987851 0 -0.023032624153564728 0.002015430486323105 0 -0.025123560809214247 0.0021910757003971324 0 -0.02379501311637592 0.00086582949936243978 0 -0.025123560809214247 0.0021910757003971324 0 -0.026128644577844411 0.0010390856322785461 0 -0.024995499648390811 0.0007847652708514451 0 -0.030165690029460603 0.0016979622084953598 0 -0.029133414617163123 0.0016082353539805876 0 -0.027526510464302829 0.0020872634117242161 0 -0.025123560809214247 0.0021910757003971324 0 -0.026128644577844411 0.0010390856322785461 0 -0.032737093968515624 0.0014953680452803647 0 -0.033642719554860527 0.0005014420829950988 0 -0.034343900288022325 0.00090153200865987851 0 -0.026128644577844411 0.0010390856322785461 0 -0.025644337045803198 -0.00018012302634130739 0 -0.026971146705974617 -5.6992219136268287e-05 0 -0.024995499648390811 0.0007847652708514451 0 -0.024332747034732708 2.1547557933262124e-05 0 -0.025644337045803198 -0.00018012302634130739 0 -0.026128644577844411 0.0010390856322785461 0 -0.024995499648390811 0.0007847652708514451 0 -0.025644337045803198 -0.00018012302634130739 0 -0.025123560809214247 0.0021910757003971324 0 -0.024995499648390811 0.0007847652708514451 0 -0.02379501311637592 0.00086582949936243978 0 -0.02379501311637592 0.00086582949936243978 0 -0.024332747034732708 2.1547557933262124e-05 0 -0.023273622065346503 -0.00010615609543818111 0 -0.024995499648390811 0.0007847652708514451 0 -0.02379501311637592 0.00086582949936243978 0 -0.024332747034732708 2.1547557933262124e-05 0 -0.024332747034732708 2.1547557933262124e-05 0 -0.023805674239509592 -0.00055722787061281641 0 -0.024584344037798106 -0.00079779927266951823 0 -0.023273622065346503 -0.00010615609543818111 0 -0.023805674239509592 -0.00055722787061281641 0 -0.023168069849980533 -0.00067029498047957057 0 -0.024332747034732708 2.1547557933262124e-05 0 -0.023273622065346503 -0.00010615609543818111 0 -0.023805674239509592 -0.00055722787061281641 0 -0.023168069849980533 -0.00067029498047957057 0 -0.02374457248050629 -0.00098742535418816588 0 -0.022878492307432548 -0.0010159583423706225 0 -0.023805674239509592 -0.00055722787061281641 0 -0.023168069849980533 -0.00067029498047957057 0 -0.02374457248050629 -0.00098742535418816588 0 -0.02374457248050629 -0.00098742535418816588 0 -0.024584344037798106 -0.00079779927266951823 0 -0.024403555218885487 -0.0019316383418079334 0 -0.023805674239509592 -0.00055722787061281641 0 -0.02374457248050629 -0.00098742535418816588 0 -0.024584344037798106 -0.00079779927266951823 0 -0.024584344037798106 -0.00079779927266951823 0 -0.025797724804739113 -0.0010919973877576189 0 -0.024403555218885487 -0.0019316383418079334 0 -0.025797724804739113 -0.0010919973877576189 0 -0.024403555218885487 -0.0019316383418079334 0 -0.027542002221844483 -0.0014060497751683062 0 -0.025797724804739113 -0.0010919973877576189 0 -0.025644337045803198 -0.00018012302634130739 0 -0.026715335414998011 -0.00069869223339272799 0 -0.025644337045803198 -0.00018012302634130739 0 -0.026971146705974617 -5.6992219136268287e-05 0 -0.026715335414998011 -0.00069869223339272799 0 -0.024332747034732708 2.1547557933262124e-05 0 -0.024584344037798106 -0.00079779927266951823 0 -0.025644337045803198 -0.00018012302634130739 0 -0.024584344037798106 -0.00079779927266951823 0 -0.025797724804739113 -0.0010919973877576189 0 -0.025644337045803198 -0.00018012302634130739 0 -0.035030945096909724 -0.00012147602139562968 0 -0.035012542061793273 -0.00037733716416099745 0 -0.035165947491035049 -0.00038930155502306434 0 -0.02379501311637592 0.00086582949936243978 0 -0.023273622065346503 -0.00010615609543818111 0 -0.022249841702031935 7.6538547003915028e-05 0 -0.023032624153564728 0.002015430486323105 0 -0.02379501311637592 0.00086582949936243978 0 -0.022249841702031935 7.6538547003915028e-05 0 -0.035223860600148156 -0.00014353763006696104 0 -0.035030945096909724 -0.00012147602139562968 0 -0.035165947491035049 -0.00038930155502306434 0 -0.03176689045884247 -1.6873105736351338e-05 0 -0.028439672134862672 -0.00016254177306145484 0 -0.022249841702031935 7.6538547003915028e-05 0 -0.022461167547102558 -0.0005869813995744203 0 -0.021635740962853329 -0.0011394643384113679 0 -0.023273622065346503 -0.00010615609543818111 0 -0.022249841702031935 7.6538547003915028e-05 0 -0.022461167547102558 -0.0005869813995744203 0 -0.023273622065346503 -0.00010615609543818111 0 -0.023168069849980533 -0.00067029498047957057 0 -0.022461167547102558 -0.0005869813995744203 0 -0.022461167547102558 -0.0005869813995744203 0 -0.02210585498392121 -0.001012988652088959 0 -0.022878492307432548 -0.0010159583423706225 0 -0.023168069849980533 -0.00067029498047957057 0 -0.022461167547102558 -0.0005869813995744203 0 -0.022878492307432548 -0.0010159583423706225 0 -0.035165947491035049 -0.00038930155502306434 0 -0.035046989760673788 -0.000484349995582206 0 -0.035058339823003278 -0.00061156075377479413 0 -0.035046989760673788 -0.000484349995582206 0 -0.035058339823003278 -0.00061156075377479413 0 -0.034957743806370012 -0.00054831548600214582 0 -0.035012542061793273 -0.00037733716416099745 0 -0.035165947491035049 -0.00038930155502306434 0 -0.035046989760673788 -0.000484349995582206 0 -0.028439672134862672 -0.00016254177306145484 0 -0.028353215866007343 -0.00035982608519429378 0 -0.026972854549317384 -0.00078283281602007781 0 -0.026899031668396464 -0.00096010464217915516 0 -0.026616611586712184 -0.00094965470053234218 0 -0.021635740962853329 -0.0011394643384113679 0 -0.021758617718894424 -0.0011339963516613302 0 -0.021879744265341883 -0.0010991360769154069 0 -0.021635740962853329 -0.0011394643384113679 0 -0.021662283279884547 -0.0011371698095576914 0 -0.021758617718894424 -0.0011339963516613302 0 -0.021635740962853329 -0.0011394643384113679 0 -0.021662283279884547 -0.0011371698095576914 0 -0.021742858086967555 -0.001022418772531274 0 -0.021662283279884547 -0.0011371698095576914 0 -0.021564494363996999 -0.0011034199139480633 0 -0.021742858086967555 -0.001022418772531274 0 -0.028353215866007343 -0.00035982608519429378 0 -0.022705395775046738 -0.0010554953540959679 0 -0.021662283279884547 -0.0011371698095576914 0 -0.02170292153629395 -0.0011311231097634136 0 -0.021758617718894424 -0.0011339963516613302 0 -0.021516517858406199 -0.0008533369261957477 0 -0.021505154555165433 -0.0011075818741659001 0 -0.021863334440112462 4.1202116195829383e-05 0 -0.021989351984453946 -0.0011475217667712998 0 -0.021505154555165433 -0.0011075818741659001 0 -0.024403555218885487 -0.0019316383418079334 0 -0.02171323456110465 -0.0011283285052211827 0 -0.021564494363996999 -0.0011034199139480633 0 -0.02170292153629395 -0.0011311231097634136 0 -0.021662283279884547 -0.0011371698095576914 0 -0.021564494363996999 -0.0011034199139480633 0 -0.02170292153629395 -0.0011311231097634136 0 -0.02171323456110465 -0.0011283285052211827 0 -0.021564494363996999 -0.0011034199139480633 0 -0.021505154555165433 -0.0011075818741659001 0 -0.02171323456110465 -0.0011283285052211827 0 -0.021989351984453946 -0.0011475217667712998 0 -0.021505154555165433 -0.0011075818741659001 0 -0.02171323456110465 -0.0011283285052211827 0 -0.021989351984453946 -0.0011475217667712998 0 -0.021850634515835819 -0.0011302335042494467 0 -0.021989351984453946 -0.0011475217667712998 0 -0.021850634515835819 -0.0011302335042494467 0 -0.022061818802665986 -0.0011146683489718901 0 -0.021850634515835819 -0.0011302335042494467 0 -0.021879744265341883 -0.0010991360769154069 0 -0.022061818802665986 -0.0011146683489718901 0 -0.02171323456110465 -0.0011283285052211827 0 -0.021850634515835819 -0.0011302335042494467 0 -0.02170292153629395 -0.0011311231097634136 0 -0.021850634515835819 -0.0011302335042494467 0 -0.02170292153629395 -0.0011311231097634136 0 -0.021758617718894424 -0.0011339963516613302 0 -0.021850634515835819 -0.0011302335042494467 0 -0.021758617718894424 -0.0011339963516613302 0 -0.021879744265341883 -0.0010991360769154069 0 -0.021635740962853329 -0.0011394643384113679 0 -0.021879744265341883 -0.0010991360769154069 0 -0.02210585498392121 -0.001012988652088959 0 -0.022461167547102558 -0.0005869813995744203 0 -0.021635740962853329 -0.0011394643384113679 0 -0.02210585498392121 -0.001012988652088959 0 -0.021879744265341883 -0.0010991360769154069 0 -0.02210585498392121 -0.001012988652088959 0 -0.022061818802665986 -0.0011146683489718901 0 -0.021989351984453946 -0.0011475217667712998 0 -0.022061818802665986 -0.0011146683489718901 0 -0.02262254649581073 -0.0011887008767892055 0 -0.02210585498392121 -0.001012988652088959 0 -0.022061818802665986 -0.0011146683489718901 0 -0.02262254649581073 -0.0011887008767892055 0 -0.02210585498392121 -0.001012988652088959 0 -0.022878492307432548 -0.0010159583423706225 0 -0.02262254649581073 -0.0011887008767892055 0 -0.021516517858406199 -0.0008533369261957477 0 -0.021263901833451553 -0.00098447078431427009 0 -0.021587803163694189 -0.00071758976181921722 0 -0.021263901833451553 -0.00098447078431427009 0 -0.021587803163694189 -0.00071758976181921722 0 -0.021672804945768346 -0.00078722203433511013 0 -0.021263901833451553 -0.00098447078431427009 0 -0.021672804945768346 -0.00078722203433511013 0 -0.021074174378501884 -0.0012411637072747893 0 -0.021263901833451553 -0.00098447078431427009 0 -0.021053048252069908 -0.0010394450991659222 0 -0.021074174378501884 -0.0012411637072747893 0 -0.021263901833451553 -0.00098447078431427009 0 -0.021344220884828992 -0.00096859470499580081 0 -0.021053048252069908 -0.0010394450991659222 0 -0.021344220884828992 -0.00096859470499580081 0 -0.021464516353973621 -0.00097893179840503539 0 -0.021053048252069908 -0.0010394450991659222 0 -0.021516517858406199 -0.0008533369261957477 0 -0.021263901833451553 -0.00098447078431427009 0 -0.021344220884828992 -0.00096859470499580081 0 -0.021516517858406199 -0.0008533369261957477 0 -0.021344220884828992 -0.00096859470499580081 0 -0.021505154555165433 -0.0011075818741659001 0 -0.021344220884828992 -0.00096859470499580081 0 -0.021505154555165433 -0.0011075818741659001 0 -0.021464516353973621 -0.00097893179840503539 0 -0.021564494363996999 -0.0011034199139480633 0 -0.021505154555165433 -0.0011075818741659001 0 -0.021464516353973621 -0.00097893179840503539 0 -0.021053048252069908 -0.0010394450991659222 0 -0.02088441241017399 -0.0008399394332417857 0 -0.020238267550134661 -0.0013607518846595731 0 -0.022705395775046738 -0.0010554953540959679 0 -0.019822063741374477 -0.0018099689148154898 0 -0.021308089843957961 -0.0011210014377934529 0 -0.022705395775046738 -0.0010554953540959679 0 -0.021464516353973621 -0.00097893179840503539 0 -0.021053048252069908 -0.0010394450991659222 0 -0.02088441241017399 -0.0008399394332417857 0 -0.021564494363996999 -0.0011034199139480633 0 -0.021464516353973621 -0.00097893179840503539 0 -0.021742858086967555 -0.001022418772531274 0 -0.0232063517711571 -0.0009273511889903817 0 -0.025991361938506482 -0.00048911860580002936 0 -0.022658535143866222 -8.0362940989680111e-05 0 -0.021863334440112462 4.1202116195829383e-05 0 -0.02449460076259663 0.00039781165882182189 0 -0.022658535143866222 -8.0362940989680111e-05 0 -0.021863334440112462 4.1202116195829383e-05 0 -0.022211210599566291 -0.0004064732813261229 0 -0.022658535143866222 -8.0362940989680111e-05 0 -0.022211210599566291 -0.0004064732813261229 0 -0.022691271689202062 -0.00022151423854101614 0 -0.022658535143866222 -8.0362940989680111e-05 0 -0.022691271689202062 -0.00022151423854101614 0 -0.023059372568647093 1.7475070203663861e-05 0 -0.021516517858406199 -0.0008533369261957477 0 -0.021863334440112462 4.1202116195829383e-05 0 -0.021587803163694189 -0.00071758976181921722 0 -0.022878492307432548 -0.0010159583423706225 0 -0.02262254649581073 -0.0011887008767892055 0 -0.024403555218885487 -0.0019316383418079334 0 -0.021989351984453946 -0.0011475217667712998 0 -0.02262254649581073 -0.0011887008767892055 0 -0.024403555218885487 -0.0019316383418079334 0 -0.021726640397754054 -0.0010927394910819537 0 -0.0232063517711571 -0.0009273511889903817 0 -0.02374457248050629 -0.00098742535418816588 0 -0.022878492307432548 -0.0010159583423706225 0 -0.024403555218885487 -0.0019316383418079334 0 -0.021672804945768346 -0.00078722203433511013 0 -0.02204524969829643 -0.00072995521666627489 0 -0.022211210599566291 -0.0004064732813261229 0 -0.021863334440112462 4.1202116195829383e-05 0 -0.021587803163694189 -0.00071758976181921722 0 -0.021672804945768346 -0.00078722203433511013 0 -0.021863334440112462 4.1202116195829383e-05 0 -0.021672804945768346 -0.00078722203433511013 0 -0.022211210599566291 -0.0004064732813261229 0 -0.021672804945768346 -0.00078722203433511013 0 -0.02204524969829643 -0.00072995521666627489 0 -0.021922233762521545 -0.0010418140473032911 0 -0.02204524969829643 -0.00072995521666627489 0 -0.022464616453747172 -0.00052119733244003388 0 -0.022545575873772757 -0.00080826942826351159 0 -0.02204524969829643 -0.00072995521666627489 0 -0.022211210599566291 -0.0004064732813261229 0 -0.022464616453747172 -0.00052119733244003388 0 -0.022691271689202062 -0.00022151423854101614 0 -0.022464616453747172 -0.00052119733244003388 0 -0.023012975098310871 -0.00040195148687475747 0 -0.022211210599566291 -0.0004064732813261229 0 -0.022691271689202062 -0.00022151423854101614 0 -0.022464616453747172 -0.00052119733244003388 0 -0.022464616453747172 -0.00052119733244003388 0 -0.023012975098310871 -0.00040195148687475747 0 -0.022545575873772757 -0.00080826942826351159 0 -0.023012975098310871 -0.00040195148687475747 0 -0.023059372568647093 1.7475070203663861e-05 0 -0.023679382295222921 4.3833157696068957e-06 0 -0.022691271689202062 -0.00022151423854101614 0 -0.023012975098310871 -0.00040195148687475747 0 -0.023059372568647093 1.7475070203663861e-05 0 -0.022658535143866222 -8.0362940989680111e-05 0 -0.023059372568647093 1.7475070203663861e-05 0 -0.023523248174737676 0.00073034544758114953 0 -0.022658535143866222 -8.0362940989680111e-05 0 -0.025237633484397431 -0.00053043271860224656 0 -0.02449460076259663 0.00039781165882182189 0 -0.022853045335295939 -7.350102322132833e-05 0 -0.02445364226920848 0.00011755584078897162 0 -0.023059372568647093 1.7475070203663861e-05 0 -0.023523248174737676 0.00073034544758114953 0 -0.023679382295222921 4.3833157696068957e-06 0 -0.023523248174737676 0.00073034544758114953 0 -0.024514682380795228 0.00037359416910066797 0 -0.025482051417667066 0.0011482252018027092 0 -0.02445364226920848 0.00011755584078897162 0 -0.026727070283611473 0.00029754368004106062 0 -0.023523248174737676 0.00073034544758114953 0 -0.024514682380795228 0.00037359416910066797 0 -0.023679382295222921 4.3833157696068957e-06 0 -0.024514682380795228 0.00037359416910066797 0 -0.024529762194090841 -0.00012630887515674647 0 -0.023679382295222921 4.3833157696068957e-06 0 -0.024529762194090841 -0.00012630887515674647 0 -0.023679382295222921 4.3833157696068957e-06 0 -0.023779864613711191 -0.00045141642708243057 0 -0.023012975098310871 -0.00040195148687475747 0 -0.023679382295222921 4.3833157696068957e-06 0 -0.023779864613711191 -0.00045141642708243057 0 -0.024529762194090841 -0.00012630887515674647 0 -0.023779864613711191 -0.00045141642708243057 0 -0.024741470856262302 -0.00038221934058759458 0 -0.024529762194090841 -0.00012630887515674647 0 -0.025631934545949472 1.7582882986703885e-06 0 -0.024741470856262302 -0.00038221934058759458 0 -0.026717356483266567 -1.1288605473311785e-06 0 -0.025631934545949472 1.7582882986703885e-06 0 -0.024741470856262302 -0.00038221934058759458 0 -0.026717356483266567 -1.1288605473311785e-06 0 -0.0268254