<?xml version="1.0"?>
<VTKFile type="UnstructuredGrid" version="0.1" byte_order="LittleEndian">
<UnstructuredGrid>
<Piece NumberOfPoints="31532" NumberOfCells="11026">
<Points>
<DataArray type="Float64" NumberOfComponents="3" format="ascii">
-0.5 -0.5 0 -0.48103788366730948 -0.47411044859563622 0 -0.46207576733461209 -0.47287137852869437 0 -0.5 -0.5 0 -0.46207576733461209 -0.47287137852869437 0 -0.43310683301930331 -0.5 0 -0.50000000000000711 -0.47534951866257807 0 -0.48103788366730948 -0.47411044859563622 0 -0.50000000000000711 -0.47534951866257807 0 -0.48103788366730948 -0.47411044859563622 0 -0.49159783485910757 -0.46588466467163631 0 -0.5 -0.5 0 -0.50000000000000711 -0.47534951866257807 0 -0.48103788366730948 -0.47411044859563622 0 -0.48103788366730948 -0.47411044859563622 0 -0.46207576733461209 -0.47287137852869437 0 -0.48103788366730948 -0.47411044859563622 0 -0.46207576733461209 -0.47287137852869437 0 -0.4799333136677848 -0.46360789307782879 0 -0.46207576733461209 -0.47287137852869437 0 -0.43236268186546328 -0.47092979172713051 0 -0.46207576733461209 -0.47287137852869437 0 -0.43592736901042689 -0.48643568926434849 0 -0.46207576733461209 -0.47287137852869437 0 -0.43592736901042689 -0.48643568926434849 0 -0.43236268186546328 -0.47092979172713051 0 -0.46207576733461209 -0.47287137852869437 0 -0.43592736901042689 -0.48643568926434849 0 -0.43310683301930331 -0.5 0 -0.4495394092440016 -0.44034019695706328 0 -0.43849540643028612 -0.44980703033650182 0 -0.4556331855406674 -0.45270567475432649 0 -0.4495394092440016 -0.44034019695706328 0 -0.43849540643028612 -0.44980703033650182 0 -0.43656029188014422 -0.43627860745681613 0 -0.46207576733461209 -0.47287137852869437 0 -0.4556331855406674 -0.45270567475432649 0 -0.43236268186546328 -0.47092979172713051 0 -0.43849540643028612 -0.44980703033650182 0 -0.4556331855406674 -0.45270567475432649 0 -0.43236268186546328 -0.47092979172713051 0 -0.46747339265852372 -0.4594440978464257 0 -0.4556331855406674 -0.45270567475432649 0 -0.47688005835412761 -0.44987892362108223 0 -0.46207576733461209 -0.47287137852869437 0 -0.46747339265852372 -0.4594440978464257 0 -0.4556331855406674 -0.45270567475432649 0 -0.4556331855406674 -0.45270567475432649 0 -0.47688005835412761 -0.44987892362108223 0 -0.47233605412296908 -0.43656881483482979 0 -0.4495394092440016 -0.44034019695706328 0 -0.4556331855406674 -0.45270567475432649 0 -0.47233605412296908 -0.43656881483482979 0 -0.47688005835412761 -0.44987892362108223 0 -0.49999999999999728 -0.44679677226681441 0 -0.47233605412296908 -0.43656881483482979 0 -0.46207576733461209 -0.47287137852869437 0 -0.46747339265852372 -0.4594440978464257 0 -0.4799333136677848 -0.46360789307782879 0 -0.46207576733461209 -0.47287137852869437 0 -0.4799333136677848 -0.46360789307782879 0 -0.46747339265852372 -0.4594440978464257 0 -0.47688005835412761 -0.44987892362108223 0 -0.4799333136677848 -0.46360789307782879 0 -0.47688005835412761 -0.44987892362108223 0 -0.4799333136677848 -0.46360789307782879 0 -0.48674222836453229 -0.45488962470870531 0 -0.48103788366730948 -0.47411044859563622 0 -0.4799333136677848 -0.46360789307782879 0 -0.49159783485910757 -0.46588466467163631 0 -0.4799333136677848 -0.46360789307782879 0 -0.48674222836453229 -0.45488962470870531 0 -0.4977908600009579 -0.45434440762696382 0 -0.4799333136677848 -0.46360789307782879 0 -0.4977908600009579 -0.45434440762696382 0 -0.50000000000000711 -0.47534951866257807 0 -0.4977908600009579 -0.45434440762696382 0 -0.49999999999999728 -0.44679677226681441 0 -0.50000000000000711 -0.47534951866257807 0 -0.49159783485910757 -0.46588466467163631 0 -0.4977908600009579 -0.45434440762696382 0 -0.4799333136677848 -0.46360789307782879 0 -0.49159783485910757 -0.46588466467163631 0 -0.4977908600009579 -0.45434440762696382 0 -0.49999999999999728 -0.44679677226681441 0 -0.48732935449254777 -0.43337588838393237 0 -0.47233605412296908 -0.43656881483482979 0 -0.49999999999999728 -0.44679677226681441 0 -0.47233605412296908 -0.43656881483482979 0 -0.47688005835412761 -0.44987892362108223 0 -0.48674222836453229 -0.45488962470870531 0 -0.49999999999999728 -0.44679677226681441 0 -0.48674222836453229 -0.45488962470870531 0 -0.4977908600009579 -0.45434440762696382 0 -0.49999999999999728 -0.44679677226681441 0 -0.49999999999999728 -0.44679677226681441 0 -0.50000000000000278 -0.42843899063963009 0 -0.48732935449254777 -0.43337588838393237 0 -0.50000000000000278 -0.42843899063963009 0 -0.48732935449254777 -0.43337588838393237 0 -0.47698136384722201 -0.42169897579445531 0 -0.50000000000000278 -0.42843899063963009 0 -0.47698136384722201 -0.42169897579445531 0 -0.50000000000000278 -0.42843899063963009 0 -0.49999999999999928 -0.40775841710575012 0 -0.48855535591464522 -0.41483548607750648 0 -0.50000000000000278 -0.42843899063963009 0 -0.48855535591464522 -0.41483548607750648 0 -0.47698136384722201 -0.42169897579445531 0 -0.49999999999999928 -0.40775841710575012 0 -0.48855535591464522 -0.41483548607750648 0 -0.48465567197007647 -0.40195692837084179 0 -0.48855535591464522 -0.41483548607750648 0 -0.47698136384722201 -0.42169897579445531 0 -0.47326485720947181 -0.40889162443551408 0 -0.48855535591464522 -0.41483548607750648 0 -0.47326485720947181 -0.40889162443551408 0 -0.48465567197007647 -0.40195692837084179 0 -0.47698136384722201 -0.42169897579445531 0 -0.47233605412296908 -0.43656881483482979 0 -0.46198806347764337 -0.42489190224535239 0 -0.48732935449254777 -0.43337588838393237 0 -0.47698136384722201 -0.42169897579445531 0 -0.47233605412296908 -0.43656881483482979 0 -0.50000000000000056 -0.39557281818382672 0 -0.5 -0.37145126187927391 0 -0.48870137295621141 -0.37240080156086741 0 -0.50000000000000056 -0.39557281818382672 0 -0.47884665696968209 -0.38447377016750051 0 -0.50000000000000056 -0.39557281818382672 0 -0.47884665696968209 -0.38447377016750051 0 -0.48870137295621141 -0.37240080156086741 0 -0.50000000000000056 -0.39557281818382672 0 -0.48465567197007647 -0.40195692837084179 0 -0.47884665696968209 -0.38447377016750051 0 -0.49999999999999928 -0.40775841710575012 0 -0.48465567197007647 -0.40195692837084179 0 -0.49999999999999928 -0.40775841710575012 0 -0.50000000000000056 -0.39557281818382672 0 -0.48465567197007647 -0.40195692837084179 0 -0.48465567197007647 -0.40195692837084179 0 -0.46931134394015439 -0.39615543963593158 0 -0.47884665696968209 -0.38447377016750051 0 -0.48465567197007647 -0.40195692837084179 0 -0.46931134394015439 -0.39615543963593158 0 -0.47326485720947181 -0.40889162443551408 0 -0.48465567197007647 -0.40195692837084179 0 -0.46931134394015439 -0.39615543963593158 0 -0.46931134394015439 -0.39615543963593158 0 -0.47884665696968209 -0.38447377016750051 0 -0.464503024818614 -0.3769477416931869 0 -0.46931134394015439 -0.39615543963593158 0 -0.47884665696968209 -0.38447377016750051 0 -0.47884665696968209 -0.38447377016750051 0 -0.464503024818614 -0.3769477416931869 0 -0.47591937146453672 -0.37226514366105229 0 -0.47884665696968209 -0.38447377016750051 0 -0.464503024818614 -0.3769477416931869 0 -0.47884665696968209 -0.38447377016750051 0 -0.48870137295621141 -0.37240080156086741 0 -0.47591937146453672 -0.37226514366105229 0 -0.47884665696968209 -0.38447377016750051 0 -0.48870137295621141 -0.37240080156086741 0 -0.46931134394015439 -0.39615543963593158 0 -0.464503024818614 -0.3769477416931869 0 -0.45269129934040198 -0.38987161923460301 0 -0.464503024818614 -0.3769477416931869 0 -0.45269129934040198 -0.38987161923460301 0 -0.45029100687373969 -0.37932856806034931 0 -0.464503024818614 -0.3769477416931869 0 -0.45029100687373969 -0.37932856806034931 0 -0.45015939266754829 -0.36942171321886852 0 -0.46931134394015439 -0.39615543963593158 0 -0.45269129934040198 -0.38987161923460301 0 -0.46931134394015439 -0.39615543963593158 0 -0.45223855845827537 -0.40243331072669242 0 -0.45269129934040198 -0.38987161923460301 0 -0.46931134394015439 -0.39615543963593158 0 -0.45223855845827537 -0.40243331072669242 0 -0.45396272769444068 -0.41495896094928281 0 -0.46931134394015439 -0.39615543963593158 0 -0.45396272769444068 -0.41495896094928281 0 -0.44178064405947137 -0.39930071541606149 0 -0.45269129934040198 -0.38987161923460301 0 -0.4363853395350672 -0.38781592021804978 0 -0.45223855845827537 -0.40243331072669242 0 -0.44178064405947137 -0.39930071541606149 0 -0.44344677725690868 -0.41187981839758309 0 -0.44178064405947137 -0.39930071541606149 0 -0.44344677725690868 -0.41187981839758309 0 -0.43273329193467991 -0.40750017260278038 0 -0.45223855845827537 -0.40243331072669242 0 -0.44178064405947137 -0.39930071541606149 0 -0.45269129934040198 -0.38987161923460301 0 -0.45269129934040198 -0.38987161923460301 0 -0.44446200919963319 -0.382063293466536 0 -0.4363853395350672 -0.38781592021804978 0 -0.45269129934040198 -0.38987161923460301 0 -0.44446200919963319 -0.382063293466536 0 -0.45029100687373969 -0.37932856806034931 0 -0.44446200919963319 -0.382063293466536 0 -0.4363853395350672 -0.38781592021804978 0 -0.44273461230465178 -0.37265686487422112 0 -0.44446200919963319 -0.382063293466536 0 -0.45029100687373969 -0.37932856806034931 0 -0.44273461230465178 -0.37265686487422112 0 -0.4495394092440016 -0.44034019695706328 0 -0.47233605412296908 -0.43656881483482979 0 -0.44467210824594178 -0.42634085740284228 0 -0.47233605412296908 -0.43656881483482979 0 -0.46198806347764337 -0.42489190224535239 0 -0.44467210824594178 -0.42634085740284228 0 -0.46198806347764337 -0.42489190224535239 0 -0.45396272769444068 -0.41495896094928281 0 -0.44467210824594178 -0.42634085740284228 0 -0.47233605412296908 -0.43656881483482979 0 -0.44467210824594178 -0.42634085740284228 0 -0.47698136384722201 -0.42169897579445531 0 -0.46198806347764337 -0.42489190224535239 0 -0.45396272769444068 -0.41495896094928281 0 -0.47698136384722201 -0.42169897579445531 0 -0.47326485720947181 -0.40889162443551408 0 -0.45396272769444068 -0.41495896094928281 0 -0.47326485720947181 -0.40889162443551408 0 -0.46931134394015439 -0.39615543963593158 0 -0.45396272769444068 -0.41495896094928281 0 -0.47698136384722
[...]
<PointData Scalars="" Vectors="displacement," Tensors="">
<DataArray type="Float64" Name="displacement" NumberOfComponents="3" format="ascii">
-7.7234951460925411e-07 -0.024997953095863005 0 3.7653323060151879e-05 -0.024727485674807714 0 9.5428396115283073e-06 -0.024850720223519293 0 -7.7234951460925411e-07 -0.024997953095863005 0 9.5428396115283073e-06 -0.024850720223519293 0 2.1839089032717803e-07 -0.025000371825410005 0 1.1986600691369156e-08 -0.023767393580164196 0 3.1823217784669947e-05 -0.024066949725854041 0 5.5770061813722208e-07 -0.023764590308270613 0 4.3017326222899312e-05 -0.023191123987257409 0 -3.9920338393225798e-05 -0.02320617621320293 0 -7.7234951460925411e-07 -0.024997953095863005 0 1.2225355526585698e-06 -0.023770953736584291 0 3.7653323060151879e-05 -0.024727485674807714 0 3.1823217784669947e-05 -0.024066949725854041 0 0.00027363729401244283 -0.023319142014285459 0 4.3017326222899312e-05 -0.023191123987257409 0 3.8715033733407524e-05 -0.023160586194177633 0 6.5561827433337426e-06 -0.023254267396520523 0 0.00027363729401244283 -0.023319142014285459 0 0.00060995778710592086 -0.022117863696072802 0 0.00027363729401244283 -0.023319142014285459 0 -3.2781237050825275e-05 -0.025055808341600174 0 0.0002315877068491698 -0.024215324890445741 0 3.610480676364955e-05 -0.024638231263522551 0 0.00024151780075334589 -0.024681337926466582 0 9.5428396115283073e-06 -0.024850720223519293 0 1.7903061332434026e-05 -0.024980528336482562 0 2.1839089032717803e-07 -0.025000371825410005 0 -0.00040929611444101024 -0.020497011390722387 0 3.0192455314137556e-06 -0.019975731379691469 0 0.00012171535376783059 -0.020790192861042774 0 -0.00040929611444101024 -0.020497011390722387 0 3.0192455314137556e-06 -0.019975731379691469 0 -0.0005740242543001285 -0.019852193530467629 0 0.0010043798093361696 -0.021098981817358173 0 0.00012171535376783059 -0.020790192861042774 0 0.00092128620469391135 -0.019712752026796631 0 3.0192455314137556e-06 -0.019975731379691469 0 0.00012171535376783059 -0.020790192861042774 0 0.00092128620469391135 -0.019712752026796631 0 0.00040063172029526899 -0.021332724499510812 0 0.00012171535376783059 -0.020790192861042774 0 -4.4511966830568541e-05 -0.021773404318374313 0 0.0010043798093361696 -0.021098981817358173 0 0.00040063172029526899 -0.021332724499510812 0 0.00012171535376783059 -0.020790192861042774 0 0.00012171535376783059 -0.020790192861042774 0 -4.4511966830568541e-05 -0.021773404318374313 0 -0.00054604181349229115 -0.021598491350957351 0 -0.00040929611444101024 -0.020497011390722387 0 0.00012171535376783059 -0.020790192861042774 0 -0.00054604181349229115 -0.021598491350957351 0 -4.4511966830568541e-05 -0.021773404318374313 0 -5.1259463565915965e-07 -0.022342624128088136 0 -0.00054604181349229115 -0.021598491350957351 0 0.0010043798093361696 -0.021098981817358173 0 0.00040063172029526899 -0.021332724499510812 0 0.00054852235454317256 -0.021858873331144953 0 0.00027363729401244283 -0.023319142014285459 0 0.00035557070510329377 -0.022325536689650826 0 0.00040063172029526899 -0.021332724499510812 0 -4.4511966830568541e-05 -0.021773404318374313 0 0.00054852235454317256 -0.021858873331144953 0 -4.4511966830568541e-05 -0.021773404318374313 0 0.00054852235454317256 -0.021858873331144953 0 0.00010604810628258728 -0.022142964772734475 0 4.3017326222899312e-05 -0.023191123987257409 0 6.5561827433337426e-06 -0.023254267396520523 0 -3.9920338393225798e-05 -0.02320617621320293 0 0.00054852235454317256 -0.021858873331144953 0 0.00010604810628258728 -0.022142964772734475 0 2.733413484153099e-05 -0.022683603219301719 0 0.00035557070510329377 -0.022325536689650826 0 3.0902964098969173e-05 -0.022780408541566655 0 5.5770061813722208e-07 -0.023764590308270613 0 2.733413484153099e-05 -0.022683603219301719 0 -5.1259463565915965e-07 -0.022342624128088136 0 5.5770061813722208e-07 -0.023764590308270613 0 -3.9920338393225798e-05 -0.02320617621320293 0 2.733413484153099e-05 -0.022683603219301719 0 6.5561827433337426e-06 -0.023254267396520523 0 -3.9920338393225798e-05 -0.02320617621320293 0 2.733413484153099e-05 -0.022683603219301719 0 2.3695666940373281e-07 -0.022336901207993958 0 -8.4756143982625423e-05 -0.021694513504075343 0 6.6044920573918466e-05 -0.021373801097353085 0 -1.5583262683696364e-07 -0.022339285915841854 0 -0.00022134861316937469 -0.021634000085757128 0 -4.4511966830568541e-05 -0.021773404318374313 0 0.00010604810628258728 -0.022142964772734475 0 -5.1259463565915965e-07 -0.022342624128088136 0 0.00010604810628258728 -0.022142964772734475 0 2.733413484153099e-05 -0.022683603219301719 0 -5.1259463565915965e-07 -0.022342624128088136 0 2.3695666940373281e-07 -0.022336901207993958 0 -2.4892664299901219e-07 -0.02142485436049036 0 -8.4756143982625423e-05 -0.021694513504075343 0 -2.4892664299901219e-07 -0.02142485436049036 0 -8.4756143982625423e-05 -0.021694513504075343 0 -0.00019561222192011915 -0.021572819454815765 0 -1.3592209291040764e-07 -0.021421474854175612 0 -5.1095893863711576e-06 -0.021332111817353869 0 1.1928855849115159e-07 -0.021419439634928494 0 -1.3353064513879071e-07 -0.020390410971831079 0 -8.1736680522362615e-05 -0.020827421801787292 0 1.1928855849115159e-07 -0.021419439634928494 0 -8.1736680522362615e-05 -0.020827421801787292 0 4.7669359681216337e-05 -0.020668615408781205 0 -1.3353064513879071e-07 -0.020390410971831079 0 -8.1736680522362615e-05 -0.020827421801787292 0 -1.2264259336867559e-05 -0.020781506331970734 0 -8.1736680522362615e-05 -0.020827421801787292 0 4.7669359681216337e-05 -0.020668615408781205 0 -2.8616563253317846e-05 -0.020682844748950265 0 -8.1736680522362615e-05 -0.020827421801787292 0 -2.8616563253317846e-05 -0.020682844748950265 0 -1.2264259336867559e-05 -0.020781506331970734 0 -0.00019561222192011915 -0.021572819454815765 0 6.6044920573918466e-05 -0.021373801097353085 0 -0.00015271655818638568 -0.021175001387406106 0 -8.4756143982625423e-05 -0.021694513504075343 0 -0.00019561222192011915 -0.021572819454815765 0 6.6044920573918466e-05 -0.021373801097353085 0 8.4052886745089596e-08 -0.019776860801401657 0 7.89316507257072e-08 -0.018573247682297879 0 -6.7112981362585017e-05 -0.018835299104189282 0 5.5898312678353497e-07 -0.019779579300188671 0 -0.00022346106396237014 -0.018566253578681399 0 8.4052886745089596e-08 -0.019776860801401657 0 6.2934398842479704e-05 -0.018837060113186532 0 -6.7112981362585017e-05 -0.018835299104189282 0 -1.378110064229697e-07 -0.01978095208835173 0 -4.7399203756475903e-05 -0.01998174098773238 0 0.00013572623918224367 -0.020032003692772991 0 -8.9023299781174602e-08 -0.020387730689477319 0 2.8513110370621472e-05 -0.020552079779349093 0 1.2674305393130089e-07 -0.020385588844717015 0 -1.378110064229697e-07 -0.01978095208835173 0 -4.7399203756475903e-05 -0.01998174098773238 0 -4.7399203756475903e-05 -0.01998174098773238 0 1.0706973955648259e-05 -0.020127840661288036 0 0.00013572623918224367 -0.020032003692772991 0 2.8513110370621472e-05 -0.020552079779349093 0 -0.00082972439660020981 -0.01938179517602202 0 -2.8616563253317846e-05 -0.020682844748950265 0 -1.2264259336867559e-05 -0.020781506331970734 0 -0.00010294770886080992 -0.020655833270883432 0 -0.0015047686940760281 -0.018295399065786391 0 -0.0016315441607867008 -0.018402371565375508 0 -0.0017250144453136813 -0.018233949439732541 0 -0.00082972439660020981 -0.01938179517602202 0 -0.00022346106396237014 -0.018566253578681399 0 0.0010725698465914441 -0.016960521731321683 0 0.0007945560388289923 -0.016456166684230531 0 0.00064588521055224612 -0.016848868956845661 0 -0.00022346106396237014 -0.018566253578681399 0 -0.00049678879456289873 -0.017300158861894413 0 0.0010725698465914441 -0.016960521731321683 0 0.00069661752052295868 -0.017315255670054461 0 0.00064588521055224612 -0.016848868956845661 0 -0.00022346106396237014 -0.018566253578681399 0 0.00039502240457474954 -0.017958581034858388 0 -0.0015047686940760281 -0.018295399065786391 0 -0.0017250144453136813 -0.018233949439732541 0 -0.0015893015969521208 -0.018105810821533716 0 -0.0017250144453136813 -0.018233949439732541 0 -0.0015893015969521208 -0.018105810821533716 0 -0.0017051101638167752 -0.018073661683887857 0 -0.0017250144453136813 -0.018233949439732541 0 -0.0017051101638167752 -0.018073661683887857 0 -0.0018137924711810849 -0.018067335200591589 0 -0.00082972439660020981 -0.01938179517602202 0 -0.0017346581460429182 -0.017730087364808144 0 -0.001518248107932351 -0.018306278170563919 0 -0.0014538049103972816 -0.018107888177085654 0 -0.0015893015969521208 -0.018105810821533716 0 -0.001518248107932351 -0.018306278170563919 0 -0.0014538049103972816 -0.018107888177085654 0 -0.001314626775212955 -0.018133004074639209 0 -0.00082972439660020981 -0.01938179517602202 0 -0.00063278633751392727 -0.019663566586387182 0 -0.001494387838208446 -0.01798435387106562 0 -0.0015893015969521208 -0.018105810821533716 0 -0.0016162667484968384 -0.017917139089810914 0 -0.0014538049103972816 -0.018107888177085654 0 -0.001494387838208446 -0.01798435387106562 0 -0.0013544823977587781 -0.01801675510291819 0 -0.001494387838208446 -0.01798435387106562 0 -0.0013544823977587781 -0.01801675510291819 0 -0.0014148715893540032 -0.017878892973089498 0 -0.0014538049103972816 -0.018107888177085654 0 -0.001494387838208446 -0.01798435387106562 0 -0.0015893015969521208 -0.018105810821533716 0 -0.0015893015969521208 -0.018105810821533716 0 -0.0016771909011665605 -0.018008568574176979 0 -0.0016162667484968384 -0.017917139089810914 0 -0.0015893015969521208 -0.018105810821533716 0 -0.0016771909011665605 -0.018008568574176979 0 -0.0017051101638167752 -0.018073661683887857 0 -0.0016771909011665605 -0.018008568574176979 0 -0.0016162667484968384 -0.017917139089810914 0 -0.001780772752648548 -0.017986911744221366 0 -0.0016771909011665605 -0.018008568574176979 0 -0.0017051101638167752 -0.018073661683887857 0 -0.001780772752648548 -0.017986911744221366 0 -0.00040929611444101024 -0.020497011390722387 0 -0.00054604181349229115 -0.021598491350957351 0 -0.0010774981809019253 -0.020257165892710757 0 6.6044920573918466e-05 -0.021373801097353085 0 -0.00015271655818638568 -0.021175001387406106 0 -0.00012297251392712642 -0.020798269179061434 0 -0.00015271655818638568 -0.021175001387406106 0 -0.00039465129536952077 -0.020980014394796759 0 -0.00012297251392712642 -0.020798269179061434 0 -0.00022134861316937469 -0.021634000085757128 0 -0.00067963768052711922 -0.019732290707360874 0 -0.00019561222192011915 -0.021572819454815765 0 -0.00015271655818638568 -0.021175001387406106 0 -0.00039465129536952077 -0.020980014394796759 0 4.7669359681216337e-05 -0.020668615408781205 0 -2.8616563253317846e-05 -0.020682844748950265 0 1.1911637028556989e-06 -0.020563438473735537 0 -2.8616563253317846e-05 -0.020682844748950265 0 -0.00010294770886080992 -0.020655833270883432 0 1.1911637028556989e-06 -0.020563438473735537 0 -5.1095893863711576e-06 -0.021332111817353869 0 -0.00063278633751392727 -0.019663566586387182 0 -0.0013109004310098804 -0.01817317664190567 0 -0.0013544823977587781 -0.01801675510291819 0 -0.0011610808690036721 -0.018042632732052422 0 -0.00063278633751392727 -0.019663566586387182 0 -0.00067963768052711922 -0.019732290707360874 0 -0.00063278633751392727 -0.019663566586387182 0 -0.001336746679367604 -0.017803481697026925 0 -0.0014538049103972816 -0.018107888177085654 0 -0.001314626775212955 -0.018133004074639209 0 -0.0013544823977587781 -0.01801675510291819 0 -0.00067963768052711922 -0.019732290707360874 0 -0.00078108936360380213 -0.019975587693101808 0 -0.00040929611444101024 -0.020497011390722387 0 -0.0010774981809019253 -0.020257165892710757 0 -0.0005740242543001285 -0.019852193530467629 0 -0.00098668448679286019 -0.020185446934314354 0 -0.0005740242543001285 -0.019852193530467629 0 -0.0013554564042354293 -0.018935441999176645 0 -0.0005740242543001285 -0.019852193530467629 0 -0.0013554564042354293 -0.018935441999176645 0 -0.00066714789749864039 -0.018867534883707137 0 -0.0013544823977587781 -0.01801675510291819 0 -0.0011610808690036721 -0.018042632732052422 0 -0.0013442111985778619 -0.017674032306316288 0 -0.0013544823977587781 -0.01801675510291819 0 -0.0014148715893540032 -0.017878892973089498 0 -0.0013442111985778619 -0.017674032306316288 0 -0.00067963768052711922 -0.019732290707360874 0 -0.0014176563391099933 -0.018151830956868849 0 -0.0014148715893540032 -0.017878892973089498 0 -0.0013442111985778619 -0.017674032306316288 0 -0.0014663580270064648 -0.017834039984145209 0 -0.0013442111985778619 -0.017674032306316288 0 -0.00147803695512585 -0.017675594512909273 0 -0.001458342764751618 -0.017553885545267503 0 -0.0013554564042354293 -0.018935441999176645 0 -0.00066714789749864039 -0.018867534883707137 0 -0.0010007024107839613 -0.018116263082937754 0 -0.0015715578187886509 -0.017300817818708514 0 -0.0016306395246586125 -0.017347976008217678 0 -0.0015987851232208692 -0.017640933819573951 0 -0.0016306395246586125 -0.017347976008217678 0 -0.0016162667484968384 -0.017917139089810914 0 -0.0015957106953894777 -0.017731849867017434 0 -0.001780772752648548 -0.017986911744221366 0 -0.0015715231298952005 -0.017398222557244662 0 -0.00157108953206006 -0.017398853852005135 0 -0.0015727234542324848 -0.017398234880523854 0 -0.0016162667484968384 -0.017917139089810914 0 -0.001546559424055345 -0.017833943240250158 0 -0.0015957106953894777 -0.017731849867017434 0 -0.0013442111985778619 -0.017674032306316288 0 -0.0014663580270064648 -0.017834039984145209 0 -0.0015020542774372341 -0.017746067950485608 0 -0.001546559424055345 -0.017833943240250158 0 -0.0015020542774372341 -0.017746067950485608 0 -0.0015957106953894777 -0.017731849867017434 0 -0.001494387838208446 -0.01798435387106562 0 -0.0016162667484968384 -0.017917139089810914 0 -0.001546559424055345 -0.017833943240250158 0 -0.001494387838208446 -0.01798435387106562 0 -0.0014148715893540032 -0.017878892973089498 0 -0.0014663580270064648 -0.017834039984145209 0 -0.001494387838208446 -0.01798435387106562 0 -0.001546559424055345 -0.017833943240250158 0 -0.0014663580270064648 -0.017834039984145209 0 -0.001546559424055345 -0.017833943240250158 0 -0.0014663580270064648 -0.017834039984145209 0 -0.0015020542774372341 -0.017746067950485608 0 -0.0015987851232208692 -0.017640933819573951 0 -0.0014547155852621995 -0.017509587357264954 0 -0.00157108953206006 -0.017398853852005135 0 -0.0015560134117219696 -0.017405436110891698 0 -0.001458342764751618 -0.017553885545267503 0 -0.00147803695512585 -0.017675594512909273 0 -0.0015957106953894777 -0.017731849867017434 0 -0.001458342764751618 -0.017553885545267503 0 -0.0013442111985778619 -0.017674032306316288 0 -0.0015020542774372341 -0.017746067950485608 0 -0.00147803695512585 -0.017675594512909273 0 -0.0015020542774372341 -0.017746067950485608 0 -0.00147803695512585 -0.017675594512909273 0 -0.0015957106953894777 -0.017731849867017434 0 -0.0015715578187886509 -0.017300817818708514 0 -0.0015687554028439691 -0.017390996222521139 0 -0.0016018049445466625 -0.017219886270571319 0 -0.001576613194711166 -0.017282399448825862 0 -0.0015560134117219696 -0.017405436110891698 0 -0.0015715231298952005 -0.017398222557244662 0 -0.00157108953206006 -0.017398853852005135 0 -0.0015560134117219696 -0.017405436110891698 0 -0.0016018049445466625 -0.017219886270571319 0 -0.001576613194711166 -0.017282399448825862 0 -0.0015771684496345677 -0.017224025984955326 0 -0.001576613194711166 -0.017282399448825862 0 -0.0015881279296859109 -0.017318084007224996 0 -0.0015560134117219696 -0.017405436110891698 0 -0.001576613194711166 -0.017282399448825862 0 -0.0015881279296859109 -0.017318084007224996 0 -0.0015876766500988427 -0.01721793050349181 0 -0.0015881279296859109 -0.017318084007224996 0 -0.0015560134117219696 -0.017405436110891698 0 -0.0015279983835552867 -0.017414922275226626 0 -0.0015560134117219696 -0.017405436110891698 0 -0.0015279983835552867 -0.017414922275226626 0 -0.001458342764751618 -0.017553885545267503 0 -0.0015279983835552867 -0.017414922275226626 0 -0.001458342764751618 -0.017553885545267503 0 -0.001478749076227208 -0.017537531507897618 0 -0.0015279983835552867 -0.017414922275226626 0 -0.001478749076227208 -0.017537531507897618 0 -0.0014881217557207828 -0.017379117824621829 0 -0.001478749076227208 -0.017537531507897618 0 -0.0014881217557207828 -0.017379117824621829 0 -0.0013526531784039345 -0.017421691644839924 0 -0.0014881217557207828 -0.017379117824621829 0 -0.0013526531784039345 -0.017421691644839924 0 -0.0014043956954760998 -0.017301642608495239 0 -0.0014881217557207828 -0.017379117824621829 0 -0.0015825079787144527 -0.017279768878136603 0 -0.0014878702801094602 -0.017239426832798589 0 -0.0014881217557207828 -0.017379117824621829 0 -0.0014878702801094602 -0.017239426832798589 0 -0.0014043956954760998 -0.017301642608495239 0 -0.0015279983835552867 -0.017414922275226626 0 -0.0014881217557207828 -0.017379117824621829 0 -0.0015825079787144527 -0.017279768878136603 0 -0.0015881279296859109 -0.017318084007224996 0 -0.0015279983835552867 -0.017414922275226626 0 -0.0015825079787144527 -0.017279768878136603 0 -0.0015881279296859109 -0.017318084007224996 0 -0.0015825079787144527 -0.017279768878136603 0 -0.0016435346323061414 -0.017231254645239218 0 -0.00066714789749864039 -0.018867534883707137 0 -0.0010007024107839613 -0.018116263082937754 0 -0.00043077910546566865 -0.01839158511245164 0 -0.0010007024107839613 -0.018116263082937754 0 -0.00071058627275145654 -0.017871323541238108 0 -0.00043077910546566865 -0.01839158511245164 0 -0.0010007024107839613 -0.018116263082937754 0 -0.00094178695941677943 -0.017636129791509143 0 -0.00071058627275145654 -0.017871323541238108 0 -0.00071058627275145654 -0.017871323541238108 0 -0.00037849687088303314 -0.01793622318838323 0 -0.00043077910546566865 -0.01839158511245164 0 -0.001478749076227208 -0.017537531507897618 0 -0.0010007024107839613 -0.018116263082937754 0 -0.0011981913872820824 -0.017620098807274061 0 -0.0013554564042354293 -0.018935441999176645 0 -0.001478749076227208 -0.017537531507897618 0 -0.0010007024107839613 -0.018116263082937754 0 -0.0014176563391099933 -0.018151830956868849 0 -0.001450050515420877 -0.017666887553569783 0 -0.0013442111985778619 -0.017674032306316288 0 -0.001458342764751618 -0.017553885545267503 0 -0.001478749076227208 -0.017537531507897618 0 -0.0010007024107839613 -0.018116263082937754 0 -0.0011981913872820824 -0.017620098807274061 0 -0.00094178695941677943 -0.017636129791509143 0 -0.0011981913872820824 -0.017620098807274061 0 -0.0011456507223198173 -0.017458056617036598 0 -0.00094178695941677943 -0.017636129791509143 0 -0.001478749076227208 -0.017537531507897618 0 -0.0011981913872820824 -0.017620098807274061 0 -0.0013526531784039345 -0.017421691644839924 0 -0.0013526531784039345 -0.017421691644839924 0 -0.0012350481398611867 -0.017270948272558012 0 -0.0014043956954760998 -0.017301642608495239 0 -0.0011981913872820824 -0.017620098807274061 0 -0.0013526531784039345 -0.017421691644839924 0 -0.0011456507223198173 -0.017458056617036598 0 -0.0013526531784039345 -0.017421691644839924 0 -0.0011456507223198173 -0.017458056617036598 0 -0.0012350481398611867 -0.017270948272558012 0 -0.0011456507223198173 -0.017458056617036598 0 -0.00094178695941677943 -0.017636129791509143 0 -0.00094427895407643667 -0.017357086872281879 0 -0.00094178695941677943 -0.017636129791509143 0 -0.00062542407340999528 -0.017528397524070899 0 -0.00094427895407643667 -0.017357086872281879 0 -0.00071058627275145654 -0.017871323541238108 0 -0.00062542407340999528 -0.017528397524070899 0 -0.00037849687088303314 -0.01793622318838323 0 -0.00094178695941677943 -0.017636129791509143 0 -0.00071058627275145654 -0.017871323541238108 0 -0.00062542407340999528 -0.017528397524070899 0 -0.00062542407340999528 -0.017528397524070899 0 -0.00023755709515274284 -0.017523696432015193 0 -0.00037849687088303314 -0.01793622318838323 0 -0.00023755709515274284 -0.017523696432015193 0 0.00030575555960478412 -0.017765442749287177 0 -8.466030884274869e-05 -0.01707247997531041 0 -0.00023755709515274284 -0.017523696432015193 0 6.5719625225398281e-05 -0.018161303660012264 0 0.000