<?xml version="1.0"?>
<VTKFile type="UnstructuredGrid" version="0.1" byte_order="LittleEndian">
<UnstructuredGrid>
<Piece NumberOfPoints="29467" NumberOfCells="10260">
<Points>
<DataArray type="Float64" NumberOfComponents="3" format="ascii">
-0.5 -0.5 0 -0.45921354097784772 -0.47280387173957938 0 -0.47547588432411658 -0.44872740469201428 0 -0.5 -0.5 0 -0.45921354097784772 -0.47280387173957938 0 -0.37725375160424129 -0.5 0 -0.5 -0.5 0 -0.47547588432411658 -0.44872740469201428 0 -0.5 -0.42712250171429622 0 -0.45921354097784772 -0.47280387173957938 0 -0.45052755989708698 -0.44916236272010429 0 -0.42299283564658757 -0.46552958650439119 0 -0.45921354097784772 -0.47280387173957938 0 -0.45052755989708698 -0.44916236272010429 0 -0.47547588432411658 -0.44872740469201428 0 -0.45052755989708698 -0.44916236272010429 0 -0.47547588432411658 -0.44872740469201428 0 -0.46104486075867379 -0.42381600691793891 0 -0.47547588432411658 -0.44872740469201428 0 -0.5 -0.42712250171429622 0 -0.48010177812852289 -0.42008695106949973 0 -0.5 -0.42712250171429622 0 -0.48010177812852289 -0.42008695106949973 0 -0.49220316280141341 -0.40393426279853811 0 -0.48010177812852289 -0.42008695106949973 0 -0.47012192956867971 -0.39575132308524091 0 -0.46104486075867379 -0.42381600691793891 0 -0.48010177812852289 -0.42008695106949973 0 -0.49220316280141341 -0.40393426279853811 0 -0.47012192956867971 -0.39575132308524091 0 -0.47547588432411658 -0.44872740469201428 0 -0.48010177812852289 -0.42008695106949973 0 -0.46104486075867379 -0.42381600691793891 0 -0.5 -0.42712250171429622 0 -0.49220316280141341 -0.40393426279853811 0 -0.5 -0.37284973670106181 0 -0.48570108059004963 -0.38581045102554062 0 -0.5 -0.37284973670106181 0 -0.47919899837868568 -0.36768663925254308 0 -0.48570108059004963 -0.38581045102554062 0 -0.49220316280141341 -0.40393426279853811 0 -0.5 -0.37284973670106181 0 -0.48570108059004963 -0.38581045102554062 0 -0.49220316280141341 -0.40393426279853811 0 -0.48570108059004963 -0.38581045102554062 0 -0.49220316280141341 -0.40393426279853811 0 -0.47012192956867971 -0.39575132308524091 0 -0.47012192956867971 -0.39575132308524091 0 -0.46634636052910827 -0.3774582788456684 0 -0.47919899837868568 -0.36768663925254308 0 -0.48570108059004963 -0.38581045102554062 0 -0.47012192956867971 -0.39575132308524091 0 -0.47919899837868568 -0.36768663925254308 0 -0.47012192956867971 -0.39575132308524091 0 -0.47919899837868568 -0.36768663925254308 0 -0.48570108059004963 -0.38581045102554062 0 -0.47919899837868568 -0.36768663925254308 0 -0.47012192956867971 -0.39575132308524091 0 -0.46634636052910827 -0.3774582788456684 0 -0.45868905404789212 -0.38574892185069271 0 -0.45868905404789212 -0.38574892185069271 0 -0.45116201367117098 -0.38125377097246949 0 -0.45839894499723538 -0.3743070419601654 0 -0.45116201367117098 -0.38125377097246949 0 -0.45230431374212943 -0.37516058995326751 0 -0.45839894499723538 -0.3743070419601654 0 -0.46634636052910827 -0.3774582788456684 0 -0.45868905404789212 -0.38574892185069271 0 -0.45839894499723538 -0.3743070419601654 0 -0.45868905404789212 -0.38574892185069271 0 -0.44985645077153452 -0.38782622122632038 0 -0.45116201367117098 -0.38125377097246949 0 -0.47012192956867971 -0.39575132308524091 0 -0.45868905404789212 -0.38574892185069271 0 -0.45282523991309948 -0.40092962666081589 0 -0.45868905404789212 -0.38574892185069271 0 -0.45282523991309948 -0.40092962666081589 0 -0.44985645077153452 -0.38782622122632038 0 -0.45282523991309948 -0.40092962666081589 0 -0.44450721775432789 -0.40517026132479889 0 -0.44498006085186309 -0.40027595258481807 0 -0.45282523991309948 -0.40092962666081589 0 -0.44450721775432789 -0.40517026132479889 0 -0.44666444692766449 -0.41163762731718051 0 -0.45282523991309948 -0.40092962666081589 0 -0.44498006085186309 -0.40027595258481807 0 -0.44659101037099108 -0.39538799161555183 0 -0.44450721775432789 -0.40517026132479889 0 -0.43985901331032218 -0.40231293787355432 0 -0.44498006085186309 -0.40027595258481807 0 -0.43985901331032218 -0.40231293787355432 0 -0.43882951166094591 -0.40818227458299661 0 -0.43389588944684332 -0.40398358769859721 0 -0.44450721775432789 -0.40517026132479889 0 -0.43985901331032218 -0.40231293787355432 0 -0.43882951166094591 -0.40818227458299661 0 -0.43985901331032218 -0.40231293787355432 0 -0.44142891485670271 -0.39632250164705451 0 -0.43678067303100238 -0.39748851269424051 0 -0.43985901331032218 -0.40231293787355432 0 -0.44498006085186309 -0.40027595258481807 0 -0.44142891485670271 -0.39632250164705451 0 -0.44498006085186309 -0.40027595258481807 0 -0.44142891485670271 -0.39632250164705451 0 -0.44659101037099108 -0.39538799161555183 0 -0.44142891485670271 -0.39632250164705451 0 -0.43735714598250458 -0.39237976185604939 0 -0.43678067303100238 -0.39748851269424051 0 -0.4430037839478998 -0.3911820005399318 0 -0.43921007162558018 -0.38852277244829431 0 -0.43735714598250458 -0.39237976185604939 0 -0.44142891485670271 -0.39632250164705451 0 -0.4430037839478998 -0.3911820005399318 0 -0.43735714598250458 -0.39237976185604939 0 -0.44142891485670271 -0.39632250164705451 0 -0.4430037839478998 -0.3911820005399318 0 -0.44659101037099108 -0.39538799161555183 0 -0.4430037839478998 -0.3911820005399318 0 -0.44659101037099108 -0.39538799161555183 0 -0.44985645077153452 -0.38782622122632038 0 -0.45282523991309948 -0.40092962666081589 0 -0.44659101037099108 -0.39538799161555183 0 -0.44985645077153452 -0.38782622122632038 0 -0.44985645077153452 -0.38782622122632038 0 -0.44541164029221658 -0.38178255862114391 0 -0.45116201367117098 -0.38125377097246949 0 -0.44985645077153452 -0.38782622122632038 0 -0.44265287980625251 -0.38612821589610141 0 -0.44541164029221658 -0.38178255862114391 0 -0.4430037839478998 -0.3911820005399318 0 -0.44985645077153452 -0.38782622122632038 0 -0.44265287980625251 -0.38612821589610141 0 -0.4430037839478998 -0.3911820005399318 0 -0.43921007162558018 -0.38852277244829431 0 -0.44265287980625251 -0.38612821589610141 0 -0.43802484482231158 -0.38529975304841629 0 -0.44265287980625251 -0.38612821589610141 0 -0.44012690125153059 -0.38126560911171109 0 -0.43802484482231158 -0.38529975304841629 0 -0.44012690125153059 -0.38126560911171109 0 -0.43608931727661732 -0.38286695856074282 0 -0.43921007162558018 -0.38852277244829431 0 -0.43802484482231158 -0.38529975304841629 0 -0.44265287980625251 -0.38612821589610141 0 -0.44265287980625251 -0.38612821589610141 0 -0.44012690125153059 -0.38126560911171109 0 -0.44541164029221658 -0.38178255862114391 0 -0.44012690125153059 -0.38126560911171109 0 -0.44236553612282148 -0.37728772275436739 0 -0.44541164029221658 -0.38178255862114391 0 -0.44012690125153059 -0.38126560911171109 0 -0.43798393348445741 -0.3758830035719668 0 -0.43608931727661732 -0.38286695856074282 0 -0.44012690125153059 -0.38126560911171109 0 -0.43798393348445741 -0.3758830035719668 0 -0.44236553612282148 -0.37728772275436739 0 -0.43798393348445741 -0.3758830035719668 0 -0.44236553612282148 -0.37728772275436739 0 -0.44277282476429852 -0.37272335650858618 0 -0.44236553612282148 -0.37728772275436739 0 -0.44681399159455332 -0.37680555797794751 0 -0.44277282476429852 -0.37272335650858618 0 -0.44236553612282148 -0.37728772275436739 0 -0.44681399159455332 -0.37680555797794751 0 -0.44541164029221658 -0.38178255862114391 0 -0.44681399159455332 -0.37680555797794751 0 -0.44541164029221658 -0.38178255862114391 0 -0.45116201367117098 -0.38125377097246949 0 -0.44681399159455332 -0.37680555797794751 0 -0.45116201367117098 -0.38125377097246949 0 -0.45230431374212943 -0.37516058995326751 0 -0.47012192956867971 -0.39575132308524091 0 -0.45282523991309948 -0.40092962666081589 0 -0.46104486075867379 -0.42381600691793891 0 -0.45282523991309948 -0.40092962666081589 0 -0.46104486075867379 -0.42381600691793891 0 -0.44666444692766449 -0.41163762731718051 0 -0.47012192956867971 -0.39575132308524091 0 -0.46104486075867379 -0.42381600691793891 0 -0.46104486075867379 -0.42381600691793891 0 -0.44666444692766449 -0.41163762731718051 0 -0.43616616969760652 -0.4174811263179512 0 -0.44666444692766449 -0.41163762731718051 0 -0.43882951166094591 -0.40818227458299661 0 -0.43616616969760652 -0.4174811263179512 0 -0.44450721775432789 -0.40517026132479889 0 -0.44666444692766449 -0.41163762731718051 0 -0.43882951166094591 -0.40818227458299661 0 -0.45052755989708698 -0.44916236272010429 0 -0.46104486075867379 -0.42381600691793891 0 -0.43391067777820908 -0.43493494374659791 0 -0.46104486075867379 -0.42381600691793891 0 -0.43391067777820908 -0.43493494374659791 0 -0.43616616969760652 -0.4174811263179512 0 -0.43391067777820908 -0.43493494374659791 0 -0.43616616969760652 -0.4174811263179512 0 -0.4222034374451139 -0.42129313016599751 0 -0.43391067777820908 -0.43493494374659791 0 -0.4222034374451139 -0.42129313016599751 0 -0.41309616814306321 -0.43709082481083328 0 -0.43616616969760652 -0.4174811263179512 0 -0.43219542477503892 -0.40725166316358291 0 -0.42700895314304771 -0.4136770611858257 0 -0.43882951166094591 -0.40818227458299661 0 -0.43616616969760652 -0.4174811263179512 0 -0.43219542477503892 -0.40725166316358291 0 -0.43882951166094591 -0.40818227458299661 0 -0.43219542477503892 -0.40725166316358291 0 -0.43389588944684332 -0.40398358769859721 0 -0.43219542477503892 -0.40725166316358291 0 -0.42700895314304771 -0.4136770611858257 0 -0.41747078065443172 -0.40868232509577129 0 -0.42700895314304771 -0.4136770611858257 0 -0.4222034374451139 -0.42129313016599751 0 -0.41747078065443172 -0.40868232509577129 0 -0.43616616969760652 -0.4174811263179512 0 -0.42700895314304771 -0.4136770611858257 0 -0.4222034374451139 -0.42129313016599751 0 -0.4222034374451139 -0.42129313016599751 0 -0.41747078065443172 -0.40868232509577129 0 -0.40765975476690602 -0.41815010353579568 0 -0.41747078065443172 -0.40868232509577129 0 -0.40765975476690602 -0.41815010353579568 0 -0.40554332448073033 -0.40402100871811181 0 -0.4222034374451139 -0.42129313016599751 0 -0.40765975476690602 -0.41815010353579568 0 -0.41309616814306321 -0.43709082481083328 0 -0.41998029958161448 -0.38596785
[...]
<PointData Scalars="" Vectors="displacement," Tensors="">
<DataArray type="Float64" Name="displacement" NumberOfComponents="3" format="ascii">
-5.1464687665259973e-07 -0.014998311689536296 0 -0.00010146157097876089 -0.014613480141587887 0 -9.2481342455970534e-05 -0.013909570228145443 0 -5.1464687665259973e-07 -0.014998311689536296 0 -0.00010146157097876089 -0.014613480141587887 0 5.6127711782751341e-08 -0.014999338944255066 0 -5.1464687665259973e-07 -0.014998311689536296 0 -9.2481342455970534e-05 -0.013909570228145443 0 3.0305628365711617e-07 -0.012815230701899513 0 -0.00010146157097876089 -0.014613480141587887 0 -6.0742320251028498e-05 -0.014361002904662731 0 -4.2925587569008347e-05 -0.014684286428638123 0 -0.00010146157097876089 -0.014613480141587887 0 -6.0742320251028498e-05 -0.014361002904662731 0 -9.2481342455970534e-05 -0.013909570228145443 0 -6.0742320251028498e-05 -0.014361002904662731 0 -9.2481342455970534e-05 -0.013909570228145443 0 8.7423207164134418e-05 -0.013881921924763327 0 -9.2481342455970534e-05 -0.013909570228145443 0 3.0305628365711617e-07 -0.012815230701899513 0 4.7467174949619432e-05 -0.013194692690099874 0 3.0305628365711617e-07 -0.012815230701899513 0 4.7467174949619432e-05 -0.013194692690099874 0 0.00013304001290187744 -0.01230804127490852 0 4.7467174949619432e-05 -0.013194692690099874 0 0.00061598728779521455 -0.013356261155531089 0 8.7423207164134418e-05 -0.013881921924763327 0 4.7467174949619432e-05 -0.013194692690099874 0 0.00013304001290187744 -0.01230804127490852 0 0.00061598728779521455 -0.013356261155531089 0 -9.2481342455970534e-05 -0.013909570228145443 0 4.7467174949619432e-05 -0.013194692690099874 0 8.7423207164134418e-05 -0.013881921924763327 0 3.0305628365711617e-07 -0.012815230701899513 0 0.00013304001290187744 -0.01230804127490852 0 1.6866485273833742e-07 -0.011185061219276524 0 3.9117021703389389e-05 -0.011472224267327235 0 1.6866485273833742e-07 -0.011185061219276524 0 5.0535646847935119e-06 -0.01102545180293742 0 3.9117021703389389e-05 -0.011472224267327235 0 0.00013304001290187744 -0.01230804127490852 0 1.6866485273833742e-07 -0.011185061219276524 0 0.0005083564801260541 -0.012068417832582888 0 0.00014460555293295448 -0.012191984789801366 0 0.001049932690711434 -0.012620905696404672 0 0.00013304001290187744 -0.01230804127490852 0 0.00061598728779521455 -0.013356261155531089 0 0.00066276378527781253 -0.013541248574440251 0 0.0011209944136616279 -0.013581297333298905 0 0.0013678630220608516 -0.013221644764688347 0 0.001049932690711434 -0.012620905696404672 0 0.00061598728779521455 -0.013356261155531089 0 0.0018545091342797829 -0.012900693821790682 0 0.00078123802854951872 -0.013635243410990277 0 0.00087650952541171222 -0.011833356319342483 0 0.0005083564801260541 -0.012068417832582888 0 0.00087650952541171222 -0.011833356319342483 0 0.00066276378527781253 -0.013541248574440251 0 0.0011209944136616279 -0.013581297333298905 0 0.00091078167676553667 -0.013793837077926403 0 0.00091078167676553667 -0.013793837077926403 0 0.0010242542756262215 -0.013966808376825462 0 0.0012024794569319695 -0.013774332022706316 0 0.0010242542756262215 -0.013966808376825462 0 0.0011814218772959744 -0.013927530772928616 0 0.0012024794569319695 -0.013774332022706316 0 0.0011209944136616279 -0.013581297333298905 0 0.00091078167676553667 -0.013793837077926403 0 0.0012024794569319695 -0.013774332022706316 0 0.00091078167676553667 -0.013793837077926403 0 0.0008561012509779968 -0.014010659806124291 0 0.0010242542756262215 -0.013966808376825462 0 0.00066276378527781253 -0.013541248574440251 0 0.00091078167676553667 -0.013793837077926403 0 0.00054514019069855097 -0.013975590775324544 0 0.00091078167676553667 -0.013793837077926403 0 0.00054514019069855097 -0.013975590775324544 0 0.0008561012509779968 -0.014010659806124291 0 0.00054514019069855097 -0.013975590775324544 0 0.00044537760271463721 -0.014176810732178715 0 0.00054840738944937249 -0.014152429239284867 0 0.00054514019069855097 -0.013975590775324544 0 0.00044537760271463721 -0.014176810732178715 0 0.00032626111735381482 -0.014148182139133198 0 0.00054514019069855097 -0.013975590775324544 0 0.00054840738944937249 -0.014152429239284867 0 0.00066837963520470273 -0.01410417692179986 0 0.00044537760271463721 -0.014176810732178715 0 0.00048241153013312699 -0.014270158047403485 0 0.00054840738944937249 -0.014152429239284867 0 0.00048241153013312699 -0.014270158047403485 0 0.00037748890392684227 -0.01430653975498471 0 0.00039756145904321511 -0.01440863782071935 0 0.00044537760271463721 -0.014176810732178715 0 0.00048241153013312699 -0.014270158047403485 0 0.00037748890392684227 -0.01430653975498471 0 0.00048241153013312699 -0.014270158047403485 0 0.00063518486864824015 -0.014223917660065215 0 0.00059391881608012603 -0.014332520154386012 0 0.00048241153013312699 -0.014270158047403485 0 0.00054840738944937249 -0.014152429239284867 0 0.00063518486864824015 -0.014223917660065215 0 0.00054840738944937249 -0.014152429239284867 0 0.00063518486864824015 -0.014223917660065215 0 0.00066837963520470273 -0.01410417692179986 0 0.00063518486864824015 -0.014223917660065215 0 0.00073229300897237402 -0.014315253084261657 0 0.00059391881608012603 -0.014332520154386012 0 0.00076827322795403237 -0.014179475668046228 0 0.00083467391126564028 -0.014266924879560279 0 0.00073229300897237402 -0.014315253084261657 0 0.00063518486864824015 -0.014223917660065215 0 0.00076827322795403237 -0.014179475668046228 0 0.00073229300897237402 -0.014315253084261657 0 0.00063518486864824015 -0.014223917660065215 0 0.00076827322795403237 -0.014179475668046228 0 0.00066837963520470273 -0.01410417692179986 0 0.00076827322795403237 -0.014179475668046228 0 0.00066837963520470273 -0.01410417692179986 0 0.0008561012509779968 -0.014010659806124291 0 0.00054514019069855097 -0.013975590775324544 0 0.00066837963520470273 -0.01410417692179986 0 0.0008561012509779968 -0.014010659806124291 0 0.0008561012509779968 -0.014010659806124291 0 0.0010103460468989622 -0.014107650166975051 0 0.0010242542756262215 -0.013966808376825462 0 0.0008561012509779968 -0.014010659806124291 0 0.00089775737069280838 -0.014180751275020576 0 0.0010103460468989622 -0.014107650166975051 0 0.00076827322795403237 -0.014179475668046228 0 0.0008561012509779968 -0.014010659806124291 0 0.00089775737069280838 -0.014180751275020576 0 0.00076827322795403237 -0.014179475668046228 0 0.00083467391126564028 -0.014266924879560279 0 0.00089775737069280838 -0.014180751275020576 0 0.00091891373163278326 -0.014292842804067351 0 0.00089775737069280838 -0.014180751275020576 0 0.001024231559270496 -0.014236530664069422 0 0.00091891373163278326 -0.014292842804067351 0 0.001024231559270496 -0.014236530664069422 0 0.00098307984960527782 -0.014338656381763749 0 0.00083467391126564028 -0.014266924879560279 0 0.00091891373163278326 -0.014292842804067351 0 0.00089775737069280838 -0.014180751275020576 0 0.00089775737069280838 -0.014180751275020576 0 0.001024231559270496 -0.014236530664069422 0 0.0010103460468989622 -0.014107650166975051 0 0.001024231559270496 -0.014236530664069422 0 0.0011276022719643071 -0.014176244748284763 0 0.0010103460468989622 -0.014107650166975051 0 0.001024231559270496 -0.014236530664069422 0 0.0011653615720588965 -0.014283281235579036 0 0.00098307984960527782 -0.014338656381763749 0 0.001024231559270496 -0.014236530664069422 0 0.0011653615720588965 -0.014283281235579036 0 0.0011276022719643071 -0.014176244748284763 0 0.0011653615720588965 -0.014283281235579036 0 0.0011276022719643071 -0.014176244748284763 0 0.0012465553402498109 -0.014159963125569119 0 0.0011276022719643071 -0.014176244748284763 0 0.0011393724576650333 -0.014065754810848465 0 0.0012465553402498109 -0.014159963125569119 0 0.0011276022719643071 -0.014176244748284763 0 0.0011393724576650333 -0.014065754810848465 0 0.0010103460468989622 -0.014107650166975051 0 0.0011393724576650333 -0.014065754810848465 0 0.0010103460468989622 -0.014107650166975051 0 0.0010242542756262215 -0.013966808376825462 0 0.0011393724576650333 -0.014065754810848465 0 0.0010242542756262215 -0.013966808376825462 0 0.0011814218772959744 -0.013927530772928616 0 0.00066276378527781253 -0.013541248574440251 0 0.00054514019069855097 -0.013975590775324544 0 8.7423207164134418e-05 -0.013881921924763327 0 0.00054514019069855097 -0.013975590775324544 0 8.7423207164134418e-05 -0.013881921924763327 0 0.00032626111735381482 -0.014148182139133198 0 0.00078123802854951872 -0.013635243410990277 0 3.9959397086751462e-05 -0.013794897593875664 0 8.7423207164134418e-05 -0.013881921924763327 0 0.00032626111735381482 -0.014148182139133198 0 0.00023928674856700877 -0.014369564048033157 0 0.00032626111735381482 -0.014148182139133198 0 0.00037748890392684227 -0.01430653975498471 0 0.00023928674856700877 -0.014369564048033157 0 0.00044537760271463721 -0.014176810732178715 0 0.00032626111735381482 -0.014148182139133198 0 0.00037748890392684227 -0.01430653975498471 0 -6.0742320251028498e-05 -0.014361002904662731 0 8.7423207164134418e-05 -0.013881921924763327 0 5.3178087455579106e-05 -0.014466194049564443 0 8.7423207164134418e-05 -0.013881921924763327 0 5.3178087455579106e-05 -0.014466194049564443 0 0.00023928674856700877 -0.014369564048033157 0 5.3178087455579106e-05 -0.014466194049564443 0 0.00023928674856700877 -0.014369564048033157 0 0.00018652197928157216 -0.014549663305970479 0 5.3178087455579106e-05 -0.014466194049564443 0 0.00018652197928157216 -0.014549663305970479 0 8.4601773801533536e-05 -0.014645311550955744 0 0.00023928674856700877 -0.014369564048033157 0 0.00039122817448580143 -0.014411175365950078 0 0.00027308696741188825 -0.014483824122297713 0 0.00037748890392684227 -0.01430653975498471 0 0.00023928674856700877 -0.014369564048033157 0 0.00039122817448580143 -0.014411175365950078 0 0.00037748890392684227 -0.01430653975498471 0 0.00039122817448580143 -0.014411175365950078 0 0.00039756145904321511 -0.01440863782071935 0 0.00039122817448580143 -0.014411175365950078 0 0.00027308696741188825 -0.014483824122297713 0 0.00026793756135688718 -0.014572703683119548 0 0.00027308696741188825 -0.014483824122297713 0 0.00018652197928157216 -0.014549663305970479 0 0.00026793756135688718 -0.014572703683119548 0 0.00023928674856700877 -0.014369564048033157 0 0.00027308696741188825 -0.014483824122297713 0 0.00018652197928157216 -0.014549663305970479 0 0.00018652197928157216 -0.014549663305970479 0 0.00026793756135688718 -0.014572703683119548 0 0.00018905697771509213 -0.014642125222721207 0 0.00026793756135688718 -0.014572703683119548 0 0.00018905697771509213 -0.014642125222721207 0 0.00024041009178140294 -0.014634262204704117 0 0.00018652197928157216 -0.014549663305970479 0 0.00018905697771509213 -0.014642125222721207 0 8.4601773801533536e-05 -0.014645311550955744 0 0.00094421504755817288 -0.012700138729573658 0 0.0021819948318411264 -0.0098453155419347509 0 0.0009484841108778132 -0.014512163474437482 0 0.00090785917836031101 -0.014753025390806499 0 0.0014037946974187535 -0.014262399586705431 0 0.0011653615720588965 -0.014283281235579036 0 0.0009484841108778132 -0.014512163474437482 0 0.0014037946974187535 -0.014262399586705431 0 0.0011653615720588965 -0.014283281235579036 0 0.00098307984960527782 -0.014338656381763749 0 0.0009484841108778132 -0.014512163474437482 0 0.00085746056159738838 -0.014369569593250642 0 0.0009484841108778132 -0.014512163474437482 0 0.00072730135381778114 -0.014464743916481847 0 0.00098307984960527782 -0.014338656381763749 0 0.00085746056159738838 -0.014369569593250642 0 0.0009484841108778132 -0.014512163474437482 0 0.00091891373163278326 -0.014292842804067351 0 0.00098307984960527782 -0.014338656381763749 0 0.00085746056159738838 -0.014369569593250642 0 0.00083467391126564028 -0.014266924879560279 0 0.00091891373163278326 -0.014292842804067351 0 0.00085746056159738838 -0.014369569593250642 0 0.00083467391126564028 -0.014266924879560279 0 0.00085746056159738838 -0.014369569593250642 0 0.00073229300897237402 -0.014315253084261657 0 0.0009484841108778132 -0.014512163474437482 0 0.00072730135381778114 -0.014464743916481847 0 0.00090785917836031101 -0.014753025390806499 0 0.00032426374725577541 -0.014304486315431202 0 0.00031707862820610686 -0.01455117538305189 0 0.00047459102336071962 -0.014791369944126397 0 0.00094421504755817288 -0.012700138729573658 0 0.00039756145904321511 -0.01440863782071935 0 0.00026651504808938945 -0.014007338547593721 0 0.00011611603630942404 -0.014113757899957851 0 0.00072730135381778114 -0.014464743916481847 0 0.00039756145904321511 -0.01440863782071935 0 0.00090785917836031101 -0.014753025390806499 0 0.00039122817448580143 -0.014411175365950078 0 0.00039756145904321511 -0.01440863782071935 0 0.00026651504808938945 -0.014007338547593721 0 0.00072730135381778114 -0.014464743916481847 0 0.00059391881608012603 -0.014332520154386012 0 0.00039756145904321511 -0.01440863782071935 0 0.00072730135381778114 -0.014464743916481847 0 0.00073229300897237402 -0.014315253084261657 0 0.00059391881608012603 -0.014332520154386012 0 0.00085746056159738838 -0.014369569593250642 0 0.00072730135381778114 -0.014464743916481847 0 0.00073229300897237402 -0.014315253084261657 0 0.00048241153013312699 -0.014270158047403485 0 0.00059391881608012603 -0.014332520154386012 0 0.00039756145904321511 -0.01440863782071935 0 0.00039122817448580143 -0.014411175365950078 0 0.00027663021438492755 -0.014598745733177591 0 0.00028235985009842561 -0.014604145131925702 0 0.00039122817448580143 -0.014411175365950078 0 0.00026793756135688718 -0.014572703683119548 0 0.00027663021438492755 -0.014598745733177591 0 0.00026793756135688718 -0.014572703683119548 0 0.00027663021438492755 -0.014598745733177591 0 0.00024041009178140294 -0.014634262204704117 0 0.00027663021438492755 -0.014598745733177591 0 0.00025633271500908987 -0.01462606649794152 0 0.00024041009178140294 -0.014634262204704117 0 0.00027663021438492755 -0.014598745733177591 0 0.00028235985009842561 -0.014604145131925702 0 0.00025633271500908987 -0.01462606649794152 0 0.00026651504808938945 -0.014007338547593721 0 6.405681379994674e-05 -0.013939679667615775 0 -1.5630278240910873e-05 -0.013515270662786755 0 0.0025180341068206562 -0.0095713638100634376 0 0.0019033426529235476 -0.0099796527916614659 0 0.0021492455432697479 -0.0092968407616887579 0 0.00026651504808938945 -0.014007338547593721 0 0.00011611603630942404 -0.014113757899957851 0 6.405681379994674e-05 -0.013939679667615775 0 0.00011611603630942404 -0.014113757899957851 0 6.405681379994674e-05 -0.013939679667615775 0 -0.00015255114311777036 -0.013898424339866664 0 0.00094421504755817288 -0.012700138729573658 0 0.0017838985114087466 -0.010474204402852336 0 0.002198894110974649 -0.0092218973709907587 0 0.0019411427358870502 -0.0099671009618311872 0 0.0017921439619700812 -0.0093988463099781497 0 0.0005129914036362121 -0.012500331046748338 0 0.0017838985114087466 -0.010474204402852336 0 0.00028235985009842561 -0.014604145131925702 0 0.00026386098879301024 -0.014640846561829787 0 0.00025633271500908987 -0.01462606649794152 0 0.00031707862820610686 -0.01455117538305189 0 0.0005129914036362121 -0.012500331046748338 0 6.405681379994674e-05 -0.013939679667615775 0 -1.5630278240910873e-05 -0.013515270662786755 0 -0.00015255114311777036 -0.013898424339866664 0 0.002198894110974649 -0.0092218973709907587 0 0.0021261189092682555 -0.0092093680732381472 0 0.0017921439619700812 -0.0093988463099781497 0 0.0005129914036362121 -0.012500331046748338 0 0.0013255419607252664 -0.010686276546453844 0 0.00026386098879301024 -0.014640846561829787 0 0.00022879618990826874 -0.014651029924212562 0 0.00025633271500908987 -0.01462606649794152 0 0.00020181073142420307 -0.014649323951342769 0 0.00022879618990826874 -0.014651029924212562 0 0.00019107631647523898 -0.014656498578616969 0 0.0005129914036362121 -0.012500331046748338 0 0.00028959522253905101 -0.014317697516894197 0 0.00022879618990826874 -0.014651029924212562 0 0.00018033357160426516 -0.01466760406824898 0 0.00019360089474618132 -0.01467431327293907 0 0.00022879618990826874 -0.014651029924212562 0 0.00024041009178140294 -0.014634262204704117 0 0.00019360089474618132 -0.01467431327293907 0 0.00022879618990826874 -0.014651029924212562 0 0.00025633271500908987 -0.01462606649794152 0 0.00024041009178140294 -0.014634262204704117 0 0.00018033357160426516 -0.01466760406824898 0 0.00015493695197773484 -0.014697642498885336 0 0.00014643927398182824 -0.014645005257748646 0 0.00018033357160426516 -0.01466760406824898 0 0.00014792000643948944 -0.014656303569724007 0 0.00014643927398182824 -0.014645005257748646 0 0.00018033357160426516 -0.01466760406824898 0 0.00019107631647523898 -0.014656498578616969 0 0.00014792000643948944 -0.014656303569724007 0 0.00022879618990826874 -0.014651029924212562 0 0.00018033357160426516 -0.01466760406824898 0 0.00019107631647523898 -0.014656498578616969 0 0.00020181073142420307 -0.014649323951342769 0 0.00019107631647523898 -0.014656498578616969 0 0.00014792000643948944 -0.014656303569724007 0 0.00010944588289981987 -0.014113935877140112 0 0.00012932270901603094 -0.014244464581718149 0 5.8600794351324689e-05 -0.014306697072132156 0 0.0005129914036362121 -0.012500331046748338 0 -4.2466069372751419e-06 -0.01486408028218677 0 0.00010944588289981987 -0.014113935877140112 0 0.00012385476749978046 -0.014115609014250012 0 0.00012932270901603094 -0.014244464581718149 0 0.00018905697771509213 -0.014642125222721207 0 8.4601773801533536e-05 -0.014645311550955744 0 0.00013513805948744224 -0.014708841270171417 0 0.00018905697771509213 -0.014642125222721207 0 0.00013513805948744224 -0.014708841270171417 0 0.00019360089474618132 -0.01467431327293907 0 0.00018905697771509213 -0.014642125222721207 0 0.00024041009178140294 -0.014634262204704117 0 0.00019360089474618132 -0.01467431327293907 0 0.00013513805948744224 -0.014708841270171417 0 0.00019360089474618132 -0.01467431327293907 0 0.00015493695197773484 -0.014697642498885336 0 0.00018033357160426516 -0.01466760406824898 0 0.00019360089474618132 -0.01467431327293907 0 0.00015493695197773484 -0.014697642498885336 0 0.00013513805948744224 -0.014708841270171417 0 0.00015493695197773484 -0.014697642498885336 0 0.00011022907790356598 -0.01475347276757172 0 -0.00010146157097876089 -0.014613480141587887 0 5.6127711782751341e-08 -0.014999338944255066 0 -4.2925587569008347e-05 -0.014684286428638123 0 0.00011022907790356598 -0.01475347276757172 0 5.9661232432939334e-05 -0.014750854141235411 0 7.0122621311712505e-05 -0.014826082152944627 0 0.00013513805948744224 -0.014708841270171417 0 0.00011022907790356598 -0.01475347276757172 0 5.9661232432939334e-05 -0.014750854141235411 0 8.4601773801533536e-05 -0.014645311550955744 0 0.00013513805948744224 -0.014708841270171417 0 5.9661232432939334e-05 -0.014750854141235411 0 5.9661232432939334e-05 -0.014750854141235411 0 2.2041489105127579e-05 -0.014819385244823539 0 -4.2925587569008347e-05 -0.014684286428638123 0 5.9661232432939334e-05 -0.014750854141235411 0 7.0122621311712505e-05 -0.014826082152944627 0 2.2041489105127579e-05 -0.014819385244823539 0 5.6127711782751341e-08 -0.014999338944255066 0 2.2041489105127579e-05 -0.014819385244823539 0 -4.2925587569008347e-05 -0.014684286428638123 0 7.0122621311712505e-05 -0.014826082152944627 0 5.6127711782751341e-08 -0.014999338944255066 0 2.2041489105127579e-05 -0.014819385244823539 0 -6.0742320251028498e-05 -0.014361002904662731 0 5.3178087455579106e-05 -0.014466194049564443 0 -4.2925587569008347e-05 -0.014684286428638123 0 5.3178087455579106e-05 -0.014466194049564443 0 8.4601773801533536e-05 -0.014645311550955744 0 -4.2925587569008347e-05 -0.014684286428638123 0 8.4601773801533536e-05 -0.014645311550955744 0 5.9661232432939334e-05 -0.014750854141235411 0 -4.2925587569008347e-05 -0.014684286428638123 0 0.00056326890457863142 -0.0041974919441672715 0 0.00059655942101420102 -0.0040566745736774672 0 0.00071999402143514365 -0.0043371028696878753 0 0.00056326890457863142 -0.0041974919441672715 0 0.00052995522474511426 -0.0040758264935893259 0 0.00059655942101420102 -0