<?xml version="1.0"?>
<VTKFile type="UnstructuredGrid" version="0.1" byte_order="LittleEndian">
<UnstructuredGrid>
<Piece NumberOfPoints="31364" NumberOfCells="10963">
<Points>
<DataArray type="Float64" NumberOfComponents="3" format="ascii">
-0.5 -0.5 0 -0.47923561459112152 -0.44443574669253838 0 -0.5 -0.40184768675683319 0 -0.5 -0.5 0 -0.46012471450501102 -0.46780108282305249 0 -0.47923561459112152 -0.44443574669253838 0 -0.5 -0.5 0 -0.44174741682060992 -0.48083562005243102 0 -0.40748061551896958 -0.5 0 -0.5 -0.5 0 -0.44174741682060992 -0.48083562005243102 0 -0.46012471450501102 -0.46780108282305249 0 -0.44174741682060992 -0.48083562005243102 0 -0.46012471450501102 -0.46780108282305249 0 -0.43236737799726033 -0.45966166965137317 0 -0.44826723710970118 -0.45199458572407242 0 -0.46119552876922271 -0.44018491488949402 0 -0.4364097597143915 -0.43618808862509217 0 -0.44826723710970118 -0.45199458572407242 0 -0.4364097597143915 -0.43618808862509217 0 -0.43236737799726033 -0.45966166965137317 0 -0.44826723710970118 -0.45199458572407242 0 -0.4364097597143915 -0.43618808862509217 0 -0.44826723710970118 -0.45199458572407242 0 -0.46012471450501102 -0.46780108282305249 0 -0.43236737799726033 -0.45966166965137317 0 -0.44826723710970118 -0.45199458572407242 0 -0.46012471450501102 -0.46780108282305249 0 -0.44826723710970118 -0.45199458572407242 0 -0.46012471450501102 -0.46780108282305249 0 -0.46119552876922271 -0.44018491488949402 0 -0.46012471450501102 -0.46780108282305249 0 -0.46119552876922271 -0.44018491488949402 0 -0.47923561459112152 -0.44443574669253838 0 -0.47923561459112152 -0.44443574669253838 0 -0.4734472738674676 -0.41189007714261022 0 -0.5 -0.40184768675683319 0 -0.46119552876922271 -0.44018491488949402 0 -0.47923561459112152 -0.44443574669253838 0 -0.4734472738674676 -0.41189007714261022 0 -0.48518733011659848 -0.38506416976922292 0 -0.5 -0.40184768675683319 0 -0.48407733713093642 -0.36224817451159441 0 -0.4734472738674676 -0.41189007714261022 0 -0.5 -0.40184768675683319 0 -0.49196603094400598 -0.39974107140136972 0 -0.48518733011659848 -0.38506416976922292 0 -0.5 -0.40184768675683319 0 -0.49196603094400598 -0.39974107140136972 0 -0.48518733011659848 -0.38506416976922292 0 -0.49196603094400598 -0.39974107140136972 0 -0.47685174507506672 -0.39765484536907908 0 -0.4734472738674676 -0.41189007714261022 0 -0.49196603094400598 -0.39974107140136972 0 -0.47685174507506672 -0.39765484536907908 0 -0.4734472738674676 -0.41189007714261022 0 -0.49196603094400598 -0.39974107140136972 0 -0.4734472738674676 -0.41189007714261022 0 -0.47685174507506672 -0.39765484536907908 0 -0.45844589060966062 -0.40086057772148542 0 -0.48518733011659848 -0.38506416976922292 0 -0.46920744949757692 -0.38740384469278488 0 -0.46750842263902792 -0.37228425141029542 0 -0.48518733011659848 -0.38506416976922292 0 -0.47685174507506672 -0.39765484536907908 0 -0.46920744949757692 -0.38740384469278488 0 -0.46920744949757692 -0.38740384469278488 0 -0.45470384220908622 -0.3815417340125149 0 -0.45844589060966062 -0.40086057772148542 0 -0.46920744949757692 -0.38740384469278488 0 -0.45470384220908622 -0.3815417340125149 0 -0.46750842263902792 -0.37228425141029542 0 -0.47685174507506672 -0.39765484536907908 0 -0.46920744949757692 -0.38740384469278488 0 -0.45844589060966062 -0.40086057772148542 0 -0.45470384220908622 -0.3815417340125149 0 -0.45844589060966062 -0.40086057772148542 0 -0.44007732661823112 -0.39111384719816639 0 -0.45844589060966062 -0.40086057772148542 0 -0.44007732661823112 -0.39111384719816639 0 -0.43951315129474572 -0.41118031471198407 0 -0.45470384220908622 -0.3815417340125149 0 -0.44007732661823112 -0.39111384719816639 0 -0.4379103329822206 -0.37308902279941408 0 -0.46119552876922271 -0.44018491488949402 0 -0.4734472738674676 -0.41189007714261022 0 -0.45492851679092922 -0.42403908288385062 0 -0.4734472738674676 -0.41189007714261022 0 -0.45844589060966062 -0.40086057772148542 0 -0.45492851679092922 -0.42403908288385062 0 -0.4734472738674676 -0.41189007714261022 0 -0.45492851679092922 -0.42403908288385062 0 -0.45844589060966062 -0.40086057772148542 0 -0.45492851679092922 -0.42403908288385062 0 -0.43951315129474572 -0.41118031471198407 0 -0.46119552876922271 -0.44018491488949402 0 -0.45492851679092922 -0.42403908288385062 0 -0.4364097597143915 -0.43618808862509217 0 -0.45492851679092922 -0.42403908288385062 0 -0.4364097597143915 -0.43618808862509217 0 -0.45492851679092922 -0.42403908288385062 0 -0.43951315129474572 -0.41118031471198407 0 -0.4364097597143915 -0.43618808862509217 0 -0.4364097597143915 -0.43618808862509217 0 -0.41902722362035227 -0.41301646474731651 0 -0.41973426710848538 -0.43059808026916357 0 -0.4364097597143915 -0.43618808862509217 0 -0.41902722362035227 -0.41301646474731651 0 -0.43951315129474572 -0.41118031471198407 0 -0.41902722362035227 -0.41301646474731651 0 -0.42688961785318807 -0.39799734463124692 0 -0.43951315129474572 -0.41118031471198407 0 -0.4364097597143915 -0.43618808862509217 0 -0.41902722362035227 -0.41301646474731651 0 -0.41902722362035227 -0.41301646474731651 0 -0.39931438752054038 -0.40356587878924738 0 -0.40322753768877378 -0.4134355993345547 0 -0.41902722362035227 -0.41301646474731651 0 -0.41110160916373939 -0.42271259208851952 0 -0.40322753768877378 -0.4134355993345547 0 -0.41110160916373939 -0.42271259208851952 0 -0.41053167651649131 -0.43436760493744669 0 -0.40054609476145547 -0.42214176313073309 0 -0.41110160916373939 -0.42271259208851952 0 -0.41053167651649131 -0.43436760493744669 0 -0.41973426710848538 -0.43059808026916357 0 -0.41053167651649131 -0.43436760493744669 0 -0.41973426710848538 -0.43059808026916357 0 -0.42038044346588288 -0.44670392693575173 0 -0.41902722362035227 -0.41301646474731651 0 -0.41110160916373939 -0.42271259208851952 0 -0.41973426710848538 -0.43059808026916357 0 -0.44007732661823112 -0.39111384719816639 0 -0.42190409334729168 -0.38180158975939521 0 -0.4379103329822206 -0.37308902279941408 0 -0.44007732661823112 -0.39111384719816639 0 -0.42190409334729168 -0.38180158975939521 0 -0.42688961785318807 -0.39799734463124692 0 -0.44007732661823112 -0.39111384719816639 0 -0.43951315129474572 -0.41118031471198407 0 -0.42688961785318807 -0.39799734463124692 0 -0.41902722362035227 -0.41301646474731651 0 -0.40164468752631333 -0.3898448408695408 0 -0.41902722362035227 -0.41301646474731651 0 -0.42688961785318807 -0.39799734463124692 0 -0.41588964973809889 -0.393022640911173 0 -0.42190409334729168 -0.38180158975939521 0 -0.42688961785318807 -0.39799734463124692 0 -0.41588964973809889 -0.393022640911173 0 -0.41902722362035227 -0.41301646474731651 0 -0.40164468752631333 -0.3898448408695408 0 -0.39931438752054038 -0.40356587878924738 0 -0.41902722362035227 -0.41301646474731651 0 -0.41588964973809889 -0.393022640911173 0 -0.40164468752631333 -0.3898448408695408 0 -0.42190409334729168 -0.38180158975939521 0 -0.41588964973809889 -0.393022640911173 0 -0.40905564308123771 -0.38256147179756722 0 -0.41588964973809889 -0.393022640911173 0 -0.40905564308123771 -0.38256147179756722 0 -0.40164468752631333 -0.3898448408695408 0 -0.42190409334729168 -0.38180158975939521 0 -0.40905564308123771 -0.38256147179756722 0 -0.40708191026735863 -0.37005123040099891 0 -0.39875787452712569 -0.37808705704672813 0 -0.38920413716619873 -0.38567415539685779 0 -0.38587601133240879 -0.36241209401787738 0 -0.40905564308123771 -0.38256147179756722 0 -0.39875787452712569 -0.37808705704672813 0 -0.40708191026735863 -0.37005123040099891 0 -0.40905564308123771 -0.38256147179756722 0 -0.39875787452712569 -0.37808705704672813 0 -0.40164468752631333 -0.3898448408695408 0 -0.39875787452712569 -0.37808705704672813 0 -0.40164468752631333 -0.3898448408695408 0 -0.38920413716619873 -0.38567415539685779 0 -0.39931438752054038 -0.40356587878924738 0 -0.38920413716619873 -0.38567415539685779 0 -0.39253226299999161 -0.40893621677583791 0 -0.40164468752631333 -0.3898448408695408 0 -0.39931438752054038 -0.40356587878924738 0 -0.38920413716619873 -0.38567415539685779 0 -0.38920413716619873 -0.38567415539685779 0 -0.39253226299999161 -0.40893621677583791 0 -0.38314814314964168 -0.40378743179418708 0 -0.37734110255115211 -0.39748869041215379 0 -0.38920413716619873 -0.38567415539685779 0 -0.38314814314964168 -0.40378743179418708 0 -0.38920413716619873 -0.38567415539685779 0 -0.39253226299999161 -0.40893621677583791 0 -0.38314814314964168 -0.40378743179418708 0 -0.37734110255115211 -0.39748869041215379 0 -0.37270150913827438 -0.40629795572893979 0 -0.37658995856295657 -0.38657385581986459 0 -0.38587601133240879 -0.36241209401787738 0 -0.36581332631384972 -0.37995636686610401 0 -0.38920413716619873 -0.38567415539685779 0 -0.37658995856295657 -0.38657385581986459 0 -0.38587601133240879 -0.36241209401787738 0 -0.37734110255115211 -0.39748869041215379 0 -0.38920413716619873 -0.38567415539685779 0 -0.37658995856295657 -0.38657385581986459 0 -0.39348358264628303 -0.42601102118616252 0 -0.39739403950095109 -0.43501083691664061 0 -0.40054609476145547 -0.42214176313073309 0 -0.39348358264628303 -0.42601102118616252 0 -0.40054609476145547 -0.42214176313073309 0 -0.3944916053609237 -0.41880146558125181 0 -0.39348358264628303 -0.42601102118616252 0 -0.39739403950095109 -0.43501083691664061 0 -0.38671421965396019 -0.43255210866021482 0 -0.41053167651649131 -0.43436760493744669 0 -0.39739403950095109 -0.43501083691664061 0 -0.40054609476145547 -0.42214176313073309 0 -0.40054609476145547 -0.42214176313073309 0 -0.40322753768877378 -0.4134355993345547 0 -0.39759071182071271 -0.41502243956528728 0 -0.41110160916373939 -0.42271259208851952 0 -0.40054609476145547 -0.42214176313073309 0 -0.40322753768877378 -0.4134355993345547 0 -0.39931438752054038 -0.40356587878924738 0 -0.40322753768877378 -0.4134355993345547 0 -0.39692366940308182 -0.41017286207349157 0 -0.40322753768877378 -0.4134355993345547 0 -0.39692366940308182 -0.41017286207349157 0 -0.39759071182071271 -0.41502243956528728 0 -0.39276465188932819 -0.41056050770640551 0 -0.39253226299999161 -0.40893621677583791 
[...]
<PointData Scalars="" Vectors="displacement," Tensors="">
<DataArray type="Float64" Name="displacement" NumberOfComponents="3" format="ascii">
-0.034996136437001411 1.7113355528708668e-07 0 -0.034355111715677934 -6.7228663603842952e-05 0 -0.034999305190650136 -3.1484531508921072e-07 0 -0.034996136437001411 1.7113355528708668e-07 0 -0.032617429019453109 0.00020558582591048702 0 -0.034355111715677934 -6.7228663603842952e-05 0 -0.034996136437001411 1.7113355528708668e-07 0 -0.031180372675361605 3.3887917442625753e-06 0 -0.028525461027020582 -1.1538721530105296e-06 0 -0.034996136437001411 1.7113355528708668e-07 0 -0.031180372675361605 3.3887917442625753e-06 0 -0.032617429019453109 0.00020558582591048702 0 -0.031180372675361605 3.3887917442625753e-06 0 -0.032617429019453109 0.00020558582591048702 0 -0.030282350853690378 -0.00030101331195097556 0 -0.033640636359504469 0.00097109462757693577 0 -0.034302433659719855 0.00041394990350840843 0 -0.034332447379012671 0.0013432917782484123 0 -0.030484929048945335 0.00010605733510795129 0 -0.029861580530409128 -0.00017708581399449559 0 -0.030282350853690378 -0.00030101331195097556 0 -0.032164673180460665 0.00054698003778076243 0 -0.03211287301094487 -0.00041463939528511048 0 -0.030484929048945335 0.00010605733510795129 0 -0.032617429019453109 0.00020558582591048702 0 -0.030282350853690378 -0.00030101331195097556 0 -0.032164673180460665 0.00054698003778076243 0 -0.03238906220112478 0.00024786823904229035 0 -0.033640636359504469 0.00097109462757693577 0 -0.032617429019453109 0.00020558582591048702 0 -0.034302433659719855 0.00041394990350840843 0 -0.032617429019453109 0.00020558582591048702 0 -0.034302433659719855 0.00041394990350840843 0 -0.034355111715677934 -6.7228663603842952e-05 0 -0.034355111715677934 -6.7228663603842952e-05 0 -0.034876520450617204 0.00014947813730486922 0 -0.034999305190650136 -3.1484531508921072e-07 0 -0.034302433659719855 0.00041394990350840843 0 -0.034355111715677934 -6.7228663603842952e-05 0 -0.034876520450617204 0.00014947813730486922 0 -0.034898121840808906 -2.8460149231239452e-05 0 -0.034999305190650136 -3.1484531508921072e-07 0 -0.034897631583913132 -4.2280233679595451e-05 0 -0.034876520450617204 0.00014947813730486922 0 -0.034999305190650136 -3.1484531508921072e-07 0 -0.034950451130455154 9.410485536156746e-06 0 -0.034898121840808906 -2.8460149231239452e-05 0 -0.034999305190650136 -3.1484531508921072e-07 0 -0.034950451130455154 9.410485536156746e-06 0 -0.034898121840808906 -2.8460149231239452e-05 0 -0.034950451130455154 9.410485536156746e-06 0 -0.034824848408695479 -4.8071131697252646e-05 0 -0.034755875652471804 -6.073885013507021e-05 0 -0.034950451130455154 9.410485536156746e-06 0 -0.034824848408695479 -4.8071131697252646e-05 0 -0.034796798178654061 7.4647713887464204e-05 0 -0.034926605742162518 5.9171537738877589e-06 0 -0.034755875652471804 -6.073885013507021e-05 0 -0.034824848408695479 -4.8071131697252646e-05 0 -0.034693228180503077 -7.8461508019997156e-05 0 -0.034898121840808906 -2.8460149231239452e-05 0 -0.034777328388684817 -6.8464765389431441e-05 0 -0.034775805407671431 -8.4406345946225664e-05 0 -0.034898121840808906 -2.8460149231239452e-05 0 -0.034824848408695479 -4.8071131697252646e-05 0 -0.034777328388684817 -6.8464765389431441e-05 0 -0.034777328388684817 -6.8464765389431441e-05 0 -0.034666256945147016 -0.00011284177620158562 0 -0.034693228180503077 -7.8461508019997156e-05 0 -0.034777328388684817 -6.8464765389431441e-05 0 -0.034666256945147016 -0.00011284177620158562 0 -0.034775805407671431 -8.4406345946225664e-05 0 -0.034824848408695479 -4.8071131697252646e-05 0 -0.034777328388684817 -6.8464765389431441e-05 0 -0.034693228180503077 -7.8461508019997156e-05 0 -0.034666256945147016 -0.00011284177620158562 0 -0.034693228180503077 -7.8461508019997156e-05 0 -0.034531830067740896 -0.00014718079122942712 0 -0.034693228180503077 -7.8461508019997156e-05 0 -0.034531830067740896 -0.00014718079122942712 0 -0.034610563508179086 -0.00012935366091386348 0 -0.034666256945147016 -0.00011284177620158562 0 -0.034531830067740896 -0.00014718079122942712 0 -0.034542057906827059 -0.0001724273292017775 0 -0.034302433659719855 0.00041394990350840843 0 -0.034876520450617204 0.00014947813730486922 0 -0.034703263740089779 0.00061211875467817741 0 -0.034755875652471804 -6.073885013507021e-05 0 -0.034693228180503077 -7.8461508019997156e-05 0 -0.034684342876241565 -7.9750252893233373e-05 0 -0.034796798178654061 7.4647713887464204e-05 0 -0.034903361913180032 0.00029974424762696267 0 -0.034693228180503077 -7.8461508019997156e-05 0 -0.034684342876241565 -7.9750252893233373e-05 0 -0.034610563508179086 -0.00012935366091386348 0 -0.034302433659719855 0.00041394990350840843 0 -0.034703263740089779 0.00061211875467817741 0 -0.034332447379012671 0.0013432917782484123 0 -0.034903361913180032 0.00029974424762696267 0 -0.03211287301094487 -0.00041463939528511048 0 -0.034684342876241565 -7.9750252893233373e-05 0 -0.034610563508179086 -0.00012935366091386348 0 -0.034722308978008341 -0.00015764704347980994 0 -0.02955606426293406 -0.0026832300139661802 0 -0.031049853146395141 -0.0019766992982369782 0 -0.029883247207099714 -0.0017722362444104578 0 -0.03211287301094487 -0.00041463939528511048 0 -0.032814144123339765 -0.0012661404215328432 0 -0.034610563508179086 -0.00012935366091386348 0 -0.034596471705016771 -0.00028057154504246789 0 -0.034414767206029699 -0.00019759253210915252 0 -0.034610563508179086 -0.00012935366091386348 0 -0.034722308978008341 -0.00015764704347980994 0 -0.034596471705016771 -0.00028057154504246789 0 -0.031049853146395141 -0.0019766992982369782 0 -0.032204056649170226 -0.00026992008107934798 0 -0.031059625352950985 -0.00070178491542850752 0 -0.031049853146395141 -0.0019766992982369782 0 -0.030352734654502538 -0.0012930205267987706 0 -0.031059625352950985 -0.00070178491542850752 0 -0.030352734654502538 -0.0012930205267987706 0 -0.029630029602186907 -0.0011802059780518918 0 -0.030337583782666204 -0.000606814180569048 0 -0.030352734654502538 -0.0012930205267987706 0 -0.029630029602186907 -0.0011802059780518918 0 -0.029883247207099714 -0.0017722362444104578 0 -0.029630029602186907 -0.0011802059780518918 0 -0.029883247207099714 -0.0017722362444104578 0 -0.028984989829611386 -0.0016511131317956669 0 -0.031049853146395141 -0.0019766992982369782 0 -0.030352734654502538 -0.0012930205267987706 0 -0.029883247207099714 -0.0017722362444104578 0 -0.034531830067740896 -0.00014718079122942712 0 -0.034334650319029887 -0.00023844338667073647 0 -0.034542057906827059 -0.0001724273292017775 0 -0.034531830067740896 -0.00014718079122942712 0 -0.034334650319029887 -0.00023844338667073647 0 -0.034414767206029699 -0.00019759253210915252 0 -0.034531830067740896 -0.00014718079122942712 0 -0.034610563508179086 -0.00012935366091386348 0 -0.034414767206029699 -0.00019759253210915252 0 -0.032814144123339765 -0.0012661404215328432 0 -0.033838899991378048 -0.00035677764037532012 0 -0.034596471705016771 -0.00028057154504246789 0 -0.034414767206029699 -0.00019759253210915252 0 -0.034204478793371441 -0.00027621343277404716 0 -0.034334650319029887 -0.00023844338667073647 0 -0.034414767206029699 -0.00019759253210915252 0 -0.034204478793371441 -0.00027621343277404716 0 -0.031049853146395141 -0.0019766992982369782 0 -0.03383119194795714 -0.00040279023614046285 0 -0.032204056649170226 -0.00026992008107934798 0 -0.034596471705016771 -0.00028057154504246789 0 -0.034204478793371441 -0.00027621343277404716 0 -0.03383119194795714 -0.00040279023614046285 0 -0.034334650319029887 -0.00023844338667073647 0 -0.034204478793371441 -0.00027621343277404716 0 -0.034171196736262205 -0.00027624908659079465 0 -0.034204478793371441 -0.00027621343277404716 0 -0.034171196736262205 -0.00027624908659079465 0 -0.03383119194795714 -0.00040279023614046285 0 -0.034334650319029887 -0.00023844338667073647 0 -0.034171196736262205 -0.00027624908659079465 0 -0.034391224681798414 -0.00014689319054838322 0 -0.034264546248446118 -4.5981381940379523e-05 0 -0.034050957519087099 0.00041098490274099359 0 -0.034474473832872651 0.00011585144926561767 0 -0.034171196736262205 -0.00027624908659079465 0 -0.034264546248446118 -4.5981381940379523e-05 0 -0.034391224681798414 -0.00014689319054838322 0 -0.034171196736262205 -0.00027624908659079465 0 -0.034264546248446118 -4.5981381940379523e-05 0 -0.03383119194795714 -0.00040279023614046285 0 -0.034264546248446118 -4.5981381940379523e-05 0 -0.03383119194795714 -0.00040279023614046285 0 -0.034050957519087099 0.00041098490274099359 0 -0.032204056649170226 -0.00026992008107934798 0 -0.034050957519087099 0.00041098490274099359 0 -0.031668478838745726 0.00039249190666917379 0 -0.03383119194795714 -0.00040279023614046285 0 -0.032204056649170226 -0.00026992008107934798 0 -0.034050957519087099 0.00041098490274099359 0 -0.029128686631314619 -0.0007235873776799788 0 -0.028962133688401243 -0.00010300466036409481 0 -0.024854986904597615 -0.0016576371830287851 0 -0.024809824266680477 -0.001683652400945644 0 -0.02477226348349219 -0.0016839713001246387 0 -0.024854986904597615 -0.0016576371830287851 0 -0.02477226348349219 -0.0016839713001246387 0 -0.024899307513947335 -0.001601554169303381 0 -0.024854986904597615 -0.0016576371830287851 0 -0.024809824266680477 -0.001683652400945644 0 -0.024864524156132328 -0.0017057197189217646 0 -0.024733440740537939 -0.0016869575226087 0 -0.024887645614583863 -0.0017712256554040036 0 -0.024662618293075009 -0.0016992325132778744 0 -0.02477226348349219 -0.0016839713001246387 0 -0.024733440740537939 -0.0016869575226087 0 -0.024887645614583863 -0.0017712256554040036 0 -0.024809824266680477 -0.001683652400945644 0 -0.02477226348349219 -0.0016839713001246387 0 -0.024733440740537939 -0.0016869575226087 0 -0.030029281769905544 -0.00027384080234291874 0 -0.029504685625904758 -0.00049705707969863546 0 -0.030337583782666204 -0.000606814180569048 0 -0.030029281769905544 -0.00027384080234291874 0 -0.030337583782666204 -0.000606814180569048 0 -0.030548879439586688 -0.00022910749278571622 0 -0.030029281769905544 -0.00027384080234291874 0 -0.029504685625904758 -0.00049705707969863546 0 -0.029537993900309444 -6.4030268290663511e-05 0 -0.029630029602186907 -0.0011802059780518918 0 -0.029504685625904758 -0.00049705707969863546 0 -0.030337583782666204 -0.000606814180569048 0 -0.030337583782666204 -0.000606814180569048 0 -0.031059625352950985 -0.00070178491542850752 0 -0.030877670991284488 -0.00034094596140997067 0 -0.030352734654502538 -0.0012930205267987706 0 -0.030337583782666204 -0.000606814180569048 0 -0.031059625352950985 -0.00070178491542850752 0 -0.032204056649170226 -0.00026992008107934798 0 -0.031059625352950985 -0.00070178491542850752 0 -0.031326596773531903 -0.00021761460299084877 0 -0.031059625352950985 -0.00070178491542850752 0 -0.031326596773531903 -0.00021761460299084877 0 -0.030877670991284488 -0.00034094596140997067 0 -0.031151411397906625 1.6746807135994944e-05 0 -0.031248774969645489 3.9108981007652837e-05 0 -0.030373168473819885 1.5471270344473304e-05 0 -0.031083136502898911 -0.00088189403728045177 0 -0.028962133688401243 -0.00010300466036409481 0 -0.032204056649170226 -0.00026992008107934798 0 -0.031326596773531903 -0.00021761460299084877 0 -0.031346641013521942 9.2572143447689295e-05 0 -0.031326596773531903 -0.00021761460299084877 0 -0.031151411397906625 1.6746807135994944e-05 0 -0.030877670991284488 -0.00034094596140997067 0 -0.031326596773531903 -0.00021761460299084877 0 -0.031151411397906625 1.6746807135994944e-05 0 -0.031346641013521942 9.2572143447689295e-05 0 -0.029188059632124168 -7.5549940264208932e-05 0 -0.028962133688401243 -0.00010300466036409481 0 -0.031151411397906625 1.6746807135994944e-05 0 -0.030877670991284488 -0.00034094596140997067 0 -0.030548879439586688 -0.00022910749278571622 0 -0.031151411397906625 1.6746807135994944e-05 0 -0.030548879439586688 -0.00022910749278571622 0 -0.030373168473819885 1.5471270344473304e-05 0 -0.030337583782666204 -0.000606814180569048 0 -0.030877670991284488 -0.00034094596140997067 0 -0.030548879439586688 -0.00022910749278571622 0 -0.030029281769905544 -0.00027384080234291874 0 -0.030548879439586688 -0.00022910749278571622 0 -0.030373168473819885 1.5471270344473304e-05 0 -0.031248774969645489 3.9108981007652837e-05 0 -0.030373168473819885 1.5471270344473304e-05 0 -0.029838736739403664 0.00052052016178905211 0 -0.028962133688401243 -0.00010300466036409481 0 -0.027668347593539956 -0.00076837505883095526 0 -0.024899307513947335 -0.001601554169303381 0 -0.024901322937098291 -0.0016792736775291446 0 -0.024968660876563631 -0.001703091406656672 0 -0.024854986904597615 -0.0016576371830287851 0 -0.024899307513947335 -0.001601554169303381 0 -0.024901322937098291 -0.0016792736775291446 0 -0.024854986904597615 -0.0016576371830287851 0 -0.024901322937098291 -0.0016792736775291446 0 -0.024864524156132328 -0.0017057197189217646 0 -0.030373168473819885 1.5471270344473304e-05 0 -0.029537993900309444 -6.4030268290663511e-05 0 -0.029838736739403664 0.00052052016178905211 0 -0.030029281769905544 -0.00027384080234291874 0 -0.030373168473819885 1.5471270344473304e-05 0 -0.029537993900309444 -6.4030268290663511e-05 0 -0.029537993900309444 -6.4030268290663511e-05 0 -0.028987339547453361 0.00014874475783394601 0 -0.029838736739403664 0.00052052016178905211 0 -0.029537993900309444 -6.4030268290663511e-05 0 -0.028987339547453361 0.00014874475783394601 0 -0.028718907730692581 -0.00029887739852867032 0 -0.027685518222993127 -0.00014567887449998506 0 -0.028525461027020582 -1.1538721530105296e-06 0 -0.023869334896652036 1.458908906863642e-06 0 -0.028987339547453361 0.00014874475783394601 0 -0.028718907730692581 -0.00029887739852867032 0 -0.028028806374399987 5.5919073312682745e-05 0 -0.029504685625904758 -0.00049705707969863546 0 -0.028718907730692581 -0.00029887739852867032 0 -0.029110849765579441 -0.00076445705883404112 0 -0.029504685625904758 -0.00049705707969863546 0 -0.029537993900309444 -6.4030268290663511e-05 0 -0.028718907730692581 -0.00029887739852867032 0 -0.028718907730692581 -0.00029887739852867032 0 -0.029110849765579441 -0.00076445705883404112 0 -0.02889733279413597 -0.00053059737043449867 0 -0.029630029602186907 -0.0011802059780518918 0 -0.029504685625904758 -0.00049705707969863546 0 -0.029110849765579441 -0.00076445705883404112 0 -0.028718907730692581 -0.00029887739852867032 0 -0.02889733279413597 -0.00053059737043449867 0 -0.027685518222993127 -0.00014567887449998506 0 -0.028718907730692581 -0.00029887739852867032 0 -0.028028806374399987 5.5919073312682745e-05 0 -0.027685518222993127 -0.00014567887449998506 0 -0.027685518222993127 -0.00014567887449998506 0 -0.029342476608250331 -0.00029069854916387631 0 -0.028525461027020582 -1.1538721530105296e-06 0 -0.02889733279413597 -0.00053059737043449867 0 -0.027685518222993127 -0.00014567887449998506 0 -0.029342476608250331 -0.00029069854916387631 0 -0.031180372675361605 3.3887917442625753e-06 0 -0.029342476608250331 -0.00029069854916387631 0 -0.028525461027020582 -1.1538721530105296e-06 0 -0.031180372675361605 3.3887917442625753e-06 0 -0.029342476608250331 -0.00029069854916387631 0 -0.030282350853690378 -0.00030101331195097556 0 -0.029861580530409128 -0.00017708581399449559 0 -0.030282350853690378 -0.00030101331195097556 0 -0.029822121125718231 -0.00044531606131919876 0 -0.02955606426293406 -0.0026832300139661802 0 -0.029883247207099714 -0.0017722362444104578 0 -0.028984989829611386 -0.0016511131317956669 0 -0.03211287301094487 -0.00041463939528511048 0 -0.029287769352769638 -0.001051888528315827 0 -0.029110849765579441 -0.00076445705883404112 0 -0.02889733279413597 -0.00053059737043449867 0 -0.028984989829611386 -0.0016511131317956669 0 -0.029050820714919007 -0.00067918039536971888 0 -0.029287769352769638 -0.001051888528315827 0 -0.029630029602186907 -0.0011802059780518918 0 -0.029110849765579441 -0.00076445705883404112 0 -0.028984989829611386 -0.0016511131317956669 0 -0.02889733279413597 -0.00053059737043449867 0 -0.030282350853690378 -0.00030101331195097556 0 -0.029822121125718231 -0.00044531606131919876 0 -0.02889733279413597 -0.00053059737043449867 0 -0.029342476608250331 -0.00029069854916387631 0 -0.030282350853690378 -0.00030101331195097556 0 -0.034433546598220309 -0.00034465380821800218 0 -0.03403394203685435 -0.00065491947536694059 0 -0.03428721784189067 -0.00023462506578571246 0 -0.034433546598220309 -0.00034465380821800218 0 -0.034704773862140964 -0.0002603939399949188 0 -0.034487532247419427 -0.00059917466330799377 0 -0.034704773862140964 -0.0002603939399949188 0 -0.034646550326497619 -0.00011986343123526595 0 -0.034873903883425303 -9.0105820223778673e-05 0 -0.034433546598220309 -0.00034465380821800218 0 -0.034704773862140964 -0.0002603939399949188 0 -0.034646550326497619 -0.00011986343123526595 0 -0.034433546598220309 -0.00034465380821800218 0 -0.034646550326497619 -0.00011986343123526595 0 -0.03428721784189067 -0.00023462506578571246 0 -0.034646550326497619 -0.00011986343123526595 0 -0.03499968556817664 1.0696107148645094e-08 0 -0.034548064581346551 -6.0331833111440263e-05 0 -0.034646550326497619 -0.00011986343123526595 0 -0.03499968556817664 1.0696107148645094e-08 0 -0.034873903883425303 -9.0105820223778673e-05 0 -0.03499968556817664 1.0696107148645094e-08 0 -0.03497957301496965 -1.419794244240562e-05 0 -0.035000057773350163 -4.5422524963815705e-08 0 -0.03499968556817664 1.0696107148645094e-08 0 -0.034873903883425303 -9.0105820223778673e-05 0 -0.03497957301496965 -1.419794244240562e-05 0 -0.034999882843004246 -2.7794295585323277e-08 0 -0.034828700547594155 -6.9652186790147928e-05 0 -0.034906464501873444 -4.105091781081826e-05 0 -0.035617426171137972 0.00015289835672410783 0 -0.032519518287251137 -0.00044715430549281074 0 -0.03497957301496965 -1.419794244240562e-05 0 -0.035000057773350163 -4.5422524963815705e-08 0 -0.034947757886830091 -4.787416560680449e-05 0 -0.03533085467132626 -8.8695503338608969e-05 0 -0.032519518287251137 -0.00044715430549281074 0 -0.034873903883425303 -9.0105820223778673e-05 0 -0.03497957301496965 -1.419794244240562e-05 0 -0.034999942521412711 -0.00012767160116805145 0 -0.032519518287251137 -0.00044715430549281074 0 -0.030230865241744526 -0.00099164869626227887 0 -0.026135726397939558 -0.0014095309570027054 0 -0.025928522202204946 -0.0013927970994492033 0 -0.025947483603337339 -0.001396304343682254 0 -0.034999942521412711 -0.00012767160116805145 0 -0.034879355324906602 -0.00024956049410618518 0 -0.035019481585691341 -0.00042155431857411266 0 -0.034873903883425303 -9.0105820223778673e-05 0 -0.034999942521412711 -0.00012767160116805145 0 -0.034879355324906602 -0.00024956049410618518 0 -0.032519518287251137 -0.00044715430549281074 0 -0.030151236779824113 -0.00073151981340418323 0 -0.034704773862140964 -0.0002603939399949188 0 -0.034873903883425303 -9.0105820223778673e-05 0 -0.034879355324906602 -0.00024956049410618518 0 -0.034704773862140964 -0.0002603939399949188 0 -0.034879355324906602 -0.00024956049410618518 0 -0.034815005280226588 -0.0004235453821236211 0 -0.034704773862140964 -0.0002603939399949188 0 -0.034815005280226588 -0.0004235453821236211 0 -0.034487532247419427 -0.00059917466330799377 0 -0.034815005280226588 -0.0004235453821236211 0 -0.035019481585691341 -0.00042155431857411266 0 -0.034909503855232872 -0.00060733783579130726 0 -0.034879355324906602 -0.00024956049410618518 0 -0.034815005280226588 -0.0004235453821236211 0 -0.035019481585691341 -0.00042155431857411266 0 -0.034999305190650136 -3.1484531508921072e-07 0 -0.034999785550575216 -9.388370916387181e-09 0 -0.034897631583913132 -4.2280233679595451e-05 0 -0.025928522202204946 -0.0013927970994492033 0 -0.025947483603337339 -0.001396304343682254 0 -0.025807027973817013 -0.0014121130602943763 0 -0.030151236779824113 -0.00073151981340418323 0 -0.030252047520774653 -0.00078630632078130285 0 -0.034747813132890833 -0.00011631715227255083 0 -0.034716709030008341 -0.00012876851373706672 0 -0.034777382384845346 -0.00010665496335913546 0 -0.034747813132890833 -0.00011631715227255083 0 -0.034716709030008341 -0.00012876851