<?xml version="1.0"?>
<VTKFile type="UnstructuredGrid" version="0.1" byte_order="LittleEndian">
<UnstructuredGrid>
<Piece NumberOfPoints="31364" NumberOfCells="10963">
<Points>
<DataArray type="Float64" NumberOfComponents="3" format="ascii">
-0.5 -0.5 0 -0.47923561459112152 -0.44443574669253838 0 -0.5 -0.40184768675683319 0 -0.5 -0.5 0 -0.46012471450501102 -0.46780108282305249 0 -0.47923561459112152 -0.44443574669253838 0 -0.5 -0.5 0 -0.44174741682060992 -0.48083562005243102 0 -0.40748061551896958 -0.5 0 -0.5 -0.5 0 -0.44174741682060992 -0.48083562005243102 0 -0.46012471450501102 -0.46780108282305249 0 -0.44174741682060992 -0.48083562005243102 0 -0.46012471450501102 -0.46780108282305249 0 -0.43236737799726033 -0.45966166965137317 0 -0.44826723710970118 -0.45199458572407242 0 -0.46119552876922271 -0.44018491488949402 0 -0.4364097597143915 -0.43618808862509217 0 -0.44826723710970118 -0.45199458572407242 0 -0.4364097597143915 -0.43618808862509217 0 -0.43236737799726033 -0.45966166965137317 0 -0.44826723710970118 -0.45199458572407242 0 -0.4364097597143915 -0.43618808862509217 0 -0.44826723710970118 -0.45199458572407242 0 -0.46012471450501102 -0.46780108282305249 0 -0.43236737799726033 -0.45966166965137317 0 -0.44826723710970118 -0.45199458572407242 0 -0.46012471450501102 -0.46780108282305249 0 -0.44826723710970118 -0.45199458572407242 0 -0.46012471450501102 -0.46780108282305249 0 -0.46119552876922271 -0.44018491488949402 0 -0.46012471450501102 -0.46780108282305249 0 -0.46119552876922271 -0.44018491488949402 0 -0.47923561459112152 -0.44443574669253838 0 -0.47923561459112152 -0.44443574669253838 0 -0.4734472738674676 -0.41189007714261022 0 -0.5 -0.40184768675683319 0 -0.46119552876922271 -0.44018491488949402 0 -0.47923561459112152 -0.44443574669253838 0 -0.4734472738674676 -0.41189007714261022 0 -0.48518733011659848 -0.38506416976922292 0 -0.5 -0.40184768675683319 0 -0.48407733713093642 -0.36224817451159441 0 -0.4734472738674676 -0.41189007714261022 0 -0.5 -0.40184768675683319 0 -0.49196603094400598 -0.39974107140136972 0 -0.48518733011659848 -0.38506416976922292 0 -0.5 -0.40184768675683319 0 -0.49196603094400598 -0.39974107140136972 0 -0.48518733011659848 -0.38506416976922292 0 -0.49196603094400598 -0.39974107140136972 0 -0.47685174507506672 -0.39765484536907908 0 -0.4734472738674676 -0.41189007714261022 0 -0.49196603094400598 -0.39974107140136972 0 -0.47685174507506672 -0.39765484536907908 0 -0.4734472738674676 -0.41189007714261022 0 -0.49196603094400598 -0.39974107140136972 0 -0.4734472738674676 -0.41189007714261022 0 -0.47685174507506672 -0.39765484536907908 0 -0.45844589060966062 -0.40086057772148542 0 -0.48518733011659848 -0.38506416976922292 0 -0.46920744949757692 -0.38740384469278488 0 -0.46750842263902792 -0.37228425141029542 0 -0.48518733011659848 -0.38506416976922292 0 -0.47685174507506672 -0.39765484536907908 0 -0.46920744949757692 -0.38740384469278488 0 -0.46920744949757692 -0.38740384469278488 0 -0.45470384220908622 -0.3815417340125149 0 -0.45844589060966062 -0.40086057772148542 0 -0.46920744949757692 -0.38740384469278488 0 -0.45470384220908622 -0.3815417340125149 0 -0.46750842263902792 -0.37228425141029542 0 -0.47685174507506672 -0.39765484536907908 0 -0.46920744949757692 -0.38740384469278488 0 -0.45844589060966062 -0.40086057772148542 0 -0.45470384220908622 -0.3815417340125149 0 -0.45844589060966062 -0.40086057772148542 0 -0.44007732661823112 -0.39111384719816639 0 -0.45844589060966062 -0.40086057772148542 0 -0.44007732661823112 -0.39111384719816639 0 -0.43951315129474572 -0.41118031471198407 0 -0.45470384220908622 -0.3815417340125149 0 -0.44007732661823112 -0.39111384719816639 0 -0.4379103329822206 -0.37308902279941408 0 -0.46119552876922271 -0.44018491488949402 0 -0.4734472738674676 -0.41189007714261022 0 -0.45492851679092922 -0.42403908288385062 0 -0.4734472738674676 -0.41189007714261022 0 -0.45844589060966062 -0.40086057772148542 0 -0.45492851679092922 -0.42403908288385062 0 -0.4734472738674676 -0.41189007714261022 0 -0.45492851679092922 -0.42403908288385062 0 -0.45844589060966062 -0.40086057772148542 0 -0.45492851679092922 -0.42403908288385062 0 -0.43951315129474572 -0.41118031471198407 0 -0.46119552876922271 -0.44018491488949402 0 -0.45492851679092922 -0.42403908288385062 0 -0.4364097597143915 -0.43618808862509217 0 -0.45492851679092922 -0.42403908288385062 0 -0.4364097597143915 -0.43618808862509217 0 -0.45492851679092922 -0.42403908288385062 0 -0.43951315129474572 -0.41118031471198407 0 -0.4364097597143915 -0.43618808862509217 0 -0.4364097597143915 -0.43618808862509217 0 -0.41902722362035227 -0.41301646474731651 0 -0.41973426710848538 -0.43059808026916357 0 -0.4364097597143915 -0.43618808862509217 0 -0.41902722362035227 -0.41301646474731651 0 -0.43951315129474572 -0.41118031471198407 0 -0.41902722362035227 -0.41301646474731651 0 -0.42688961785318807 -0.39799734463124692 0 -0.43951315129474572 -0.41118031471198407 0 -0.4364097597143915 -0.43618808862509217 0 -0.41902722362035227 -0.41301646474731651 0 -0.41902722362035227 -0.41301646474731651 0 -0.39931438752054038 -0.40356587878924738 0 -0.40322753768877378 -0.4134355993345547 0 -0.41902722362035227 -0.41301646474731651 0 -0.41110160916373939 -0.42271259208851952 0 -0.40322753768877378 -0.4134355993345547 0 -0.41110160916373939 -0.42271259208851952 0 -0.41053167651649131 -0.43436760493744669 0 -0.40054609476145547 -0.42214176313073309 0 -0.41110160916373939 -0.42271259208851952 0 -0.41053167651649131 -0.43436760493744669 0 -0.41973426710848538 -0.43059808026916357 0 -0.41053167651649131 -0.43436760493744669 0 -0.41973426710848538 -0.43059808026916357 0 -0.42038044346588288 -0.44670392693575173 0 -0.41902722362035227 -0.41301646474731651 0 -0.41110160916373939 -0.42271259208851952 0 -0.41973426710848538 -0.43059808026916357 0 -0.44007732661823112 -0.39111384719816639 0 -0.42190409334729168 -0.38180158975939521 0 -0.4379103329822206 -0.37308902279941408 0 -0.44007732661823112 -0.39111384719816639 0 -0.42190409334729168 -0.38180158975939521 0 -0.42688961785318807 -0.39799734463124692 0 -0.44007732661823112 -0.39111384719816639 0 -0.43951315129474572 -0.41118031471198407 0 -0.42688961785318807 -0.39799734463124692 0 -0.41902722362035227 -0.41301646474731651 0 -0.40164468752631333 -0.3898448408695408 0 -0.41902722362035227 -0.41301646474731651 0 -0.42688961785318807 -0.39799734463124692 0 -0.41588964973809889 -0.393022640911173 0 -0.42190409334729168 -0.38180158975939521 0 -0.42688961785318807 -0.39799734463124692 0 -0.41588964973809889 -0.393022640911173 0 -0.41902722362035227 -0.41301646474731651 0 -0.40164468752631333 -0.3898448408695408 0 -0.39931438752054038 -0.40356587878924738 0 -0.41902722362035227 -0.41301646474731651 0 -0.41588964973809889 -0.393022640911173 0 -0.40164468752631333 -0.3898448408695408 0 -0.42190409334729168 -0.38180158975939521 0 -0.41588964973809889 -0.393022640911173 0 -0.40905564308123771 -0.38256147179756722 0 -0.41588964973809889 -0.393022640911173 0 -0.40905564308123771 -0.38256147179756722 0 -0.40164468752631333 -0.3898448408695408 0 -0.42190409334729168 -0.38180158975939521 0 -0.40905564308123771 -0.38256147179756722 0 -0.40708191026735863 -0.37005123040099891 0 -0.39875787452712569 -0.37808705704672813 0 -0.38920413716619873 -0.38567415539685779 0 -0.38587601133240879 -0.36241209401787738 0 -0.40905564308123771 -0.38256147179756722 0 -0.39875787452712569 -0.37808705704672813 0 -0.40708191026735863 -0.37005123040099891 0 -0.40905564308123771 -0.38256147179756722 0 -0.39875787452712569 -0.37808705704672813 0 -0.40164468752631333 -0.3898448408695408 0 -0.39875787452712569 -0.37808705704672813 0 -0.40164468752631333 -0.3898448408695408 0 -0.38920413716619873 -0.38567415539685779 0 -0.39931438752054038 -0.40356587878924738 0 -0.38920413716619873 -0.38567415539685779 0 -0.39253226299999161 -0.40893621677583791 0 -0.40164468752631333 -0.3898448408695408 0 -0.39931438752054038 -0.40356587878924738 0 -0.38920413716619873 -0.38567415539685779 0 -0.38920413716619873 -0.38567415539685779 0 -0.39253226299999161 -0.40893621677583791 0 -0.38314814314964168 -0.40378743179418708 0 -0.37734110255115211 -0.39748869041215379 0 -0.38920413716619873 -0.38567415539685779 0 -0.38314814314964168 -0.40378743179418708 0 -0.38920413716619873 -0.38567415539685779 0 -0.39253226299999161 -0.40893621677583791 0 -0.38314814314964168 -0.40378743179418708 0 -0.37734110255115211 -0.39748869041215379 0 -0.37270150913827438 -0.40629795572893979 0 -0.37658995856295657 -0.38657385581986459 0 -0.38587601133240879 -0.36241209401787738 0 -0.36581332631384972 -0.37995636686610401 0 -0.38920413716619873 -0.38567415539685779 0 -0.37658995856295657 -0.38657385581986459 0 -0.38587601133240879 -0.36241209401787738 0 -0.37734110255115211 -0.39748869041215379 0 -0.38920413716619873 -0.38567415539685779 0 -0.37658995856295657 -0.38657385581986459 0 -0.39348358264628303 -0.42601102118616252 0 -0.39739403950095109 -0.43501083691664061 0 -0.40054609476145547 -0.42214176313073309 0 -0.39348358264628303 -0.42601102118616252 0 -0.40054609476145547 -0.42214176313073309 0 -0.3944916053609237 -0.41880146558125181 0 -0.39348358264628303 -0.42601102118616252 0 -0.39739403950095109 -0.43501083691664061 0 -0.38671421965396019 -0.43255210866021482 0 -0.41053167651649131 -0.43436760493744669 0 -0.39739403950095109 -0.43501083691664061 0 -0.40054609476145547 -0.42214176313073309 0 -0.40054609476145547 -0.42214176313073309 0 -0.40322753768877378 -0.4134355993345547 0 -0.39759071182071271 -0.41502243956528728 0 -0.41110160916373939 -0.42271259208851952 0 -0.40054609476145547 -0.42214176313073309 0 -0.40322753768877378 -0.4134355993345547 0 -0.39931438752054038 -0.40356587878924738 0 -0.40322753768877378 -0.4134355993345547 0 -0.39692366940308182 -0.41017286207349157 0 -0.40322753768877378 -0.4134355993345547 0 -0.39692366940308182 -0.41017286207349157 0 -0.39759071182071271 -0.41502243956528728 0 -0.39276465188932819 -0.41056050770640551 0 -0.39253226299999161 -0.40893621677583791 
[...]
<PointData Scalars="" Vectors="displacement," Tensors="">
<DataArray type="Float64" Name="displacement" NumberOfComponents="3" format="ascii">
-0.034999486369390376 -0.034998879085055681 0 -0.031863523509782214 -0.03494045659883175 0 -0.028130724184837412 -0.034996928232009318 0 -0.034999486369390376 -0.034998879085055681 0 -0.03457389045813189 -0.03395679770687679 0 -0.031863523509782214 -0.03494045659883175 0 -0.034999486369390376 -0.034998879085055681 0 -0.034953750215644279 -0.03169704630422697 0 -0.034997153309001119 -0.028527030149461532 0 -0.034999486369390376 -0.034998879085055681 0 -0.034953750215644279 -0.03169704630422697 0 -0.03457389045813189 -0.03395679770687679 0 -0.034953750215644279 -0.03169704630422697 0 -0.03457389045813189 -0.03395679770687679 0 -0.036344590789539576 -0.030802714952930479 0 -0.03278221612467707 -0.036413470206338075 0 -0.031632839241469937 -0.035611801051795962 0 -0.031423155661924836 -0.037424390720196016 0 -0.036929016167137278 -0.032540457419611916 0 -0.038352011716691038 -0.031282065703586923 0 -0.036344590789539576 -0.030802714952930479 0 -0.034946541085361452 -0.034425941214764839 0 -0.032793728874127029 -0.032554364042981489 0 -0.036929016167137278 -0.032540457419611916 0 -0.03457389045813189 -0.03395679770687679 0 -0.036344590789539576 -0.030802714952930479 0 -0.034946541085361452 -0.034425941214764839 0 -0.034591879413196559 -0.03414489392992489 0 -0.03278221612467707 -0.036413470206338075 0 -0.03457389045813189 -0.03395679770687679 0 -0.031632839241469937 -0.035611801051795962 0 -0.03457389045813189 -0.03395679770687679 0 -0.031632839241469937 -0.035611801051795962 0 -0.031863523509782214 -0.03494045659883175 0 -0.031863523509782214 -0.03494045659883175 0 -0.02938960294387517 -0.035679865727574277 0 -0.028130724184837412 -0.034996928232009318 0 -0.031632839241469937 -0.035611801051795962 0 -0.031863523509782214 -0.03494045659883175 0 -0.02938960294387517 -0.035679865727574277 0 -0.026923577887577994 -0.035255942260728618 0 -0.028130724184837412 -0.034996928232009318 0 -0.025556720641594453 -0.035279462688391452 0 -0.02938960294387517 -0.035679865727574277 0 -0.028130724184837412 -0.034996928232009318 0 -0.027872629956073515 -0.035244908421557544 0 -0.026923577887577994 -0.035255942260728618 0 -0.028130724184837412 -0.034996928232009318 0 -0.027872629956073515 -0.035244908421557544 0 -0.026923577887577994 -0.035255942260728618 0 -0.027872629956073515 -0.035244908421557544 0 -0.027170833445879752 -0.035178163156232803 0 -0.026817916628430603 -0.03508030139689669 0 -0.027872629956073515 -0.035244908421557544 0 -0.027170833445879752 -0.035178163156232803 0 -0.0280923672929136 -0.035264712450267847 0 -0.027842203372833316 -0.035162257727504198 0 -0.026817916628430603 -0.03508030139689669 0 -0.027170833445879752 -0.035178163156232803 0 -0.026871123918060725 -0.034785795304719126 0 -0.026923577887577994 -0.035255942260728618 0 -0.026823266959064878 -0.035108221049202651 0 -0.026263416528064486 -0.035169010575742725 0 -0.026923577887577994 -0.035255942260728618 0 -0.027170833445879752 -0.035178163156232803 0 -0.026823266959064878 -0.035108221049202651 0 -0.026823266959064878 -0.035108221049202651 0 -0.026635020728847245 -0.03486140415422713 0 -0.026871123918060725 -0.034785795304719126 0 -0.026823266959064878 -0.035108221049202651 0 -0.026635020728847245 -0.03486140415422713 0 -0.026263416528064486 -0.035169010575742725 0 -0.027170833445879752 -0.035178163156232803 0 -0.026823266959064878 -0.035108221049202651 0 -0.026871123918060725 -0.034785795304719126 0 -0.026635020728847245 -0.03486140415422713 0 -0.026871123918060725 -0.034785795304719126 0 -0.026843604612709078 -0.034420169776804621 0 -0.026871123918060725 -0.034785795304719126 0 -0.026843604612709078 -0.034420169776804621 0 -0.026726760912101747 -0.03425080755675293 0 -0.026635020728847245 -0.03486140415422713 0 -0.026843604612709078 -0.034420169776804621 0 -0.026590600133692546 -0.034484081268776515 0 -0.031632839241469937 -0.035611801051795962 0 -0.02938960294387517 -0.035679865727574277 0 -0.030460767479745902 -0.036198340732777744 0 -0.026817916628430603 -0.03508030139689669 0 -0.026871123918060725 -0.034785795304719126 0 -0.026576728145991727 -0.034551260045322461 0 -0.0280923672929136 -0.035264712450267847 0 -0.028276295187204314 -0.035696958579245132 0 -0.026871123918060725 -0.034785795304719126 0 -0.026576728145991727 -0.034551260045322461 0 -0.026726760912101747 -0.03425080755675293 0 -0.031632839241469937 -0.035611801051795962 0 -0.030460767479745902 -0.036198340732777744 0 -0.031423155661924836 -0.037424390720196016 0 -0.028276295187204314 -0.035696958579245132 0 -0.032793728874127029 -0.032554364042981489 0 -0.026576728145991727 -0.034551260045322461 0 -0.026726760912101747 -0.03425080755675293 0 -0.026649636524534993 -0.034019559746500623 0 -0.035154959975399219 -0.027369110454290056 0 -0.033591233938174848 -0.027654171047207805 0 -0.034987390251760606 -0.028039934862406305 0 -0.032793728874127029 -0.032554364042981489 0 -0.029774151518363021 -0.030526337600519236 0 -0.026726760912101747 -0.03425080755675293 0 -0.026631185309370427 -0.033716402576066888 0 -0.026977130748609187 -0.033966340008898713 0 -0.026726760912101747 -0.03425080755675293 0 -0.026649636524534993 -0.034019559746500623 0 -0.026631185309370427 -0.033716402576066888 0 -0.033591233938174848 -0.027654171047207805 0 -0.031527681537941207 -0.031672748485152141 0 -0.033628785443876714 -0.030080169541582272 0 -0.033591233938174848 -0.027654171047207805 0 -0.034571059634415223 -0.028701608261588064 0 -0.033628785443876714 -0.030080169541582272 0 -0.034571059634415223 -0.028701608261588064 0 -0.035337817946577227 -0.028564810179983999 0 -0.03461479692165273 -0.029585287434602887 0 -0.034571059634415223 -0.028701608261588064 0 -0.035337817946577227 -0.028564810179983999 0 -0.034987390251760606 -0.028039934862406305 0 -0.035337817946577227 -0.028564810179983999 0 -0.034987390251760606 -0.028039934862406305 0 -0.035865837001018516 -0.028062819285853989 0 -0.033591233938174848 -0.027654171047207805 0 -0.034571059634415223 -0.028701608261588064 0 -0.034987390251760606 -0.028039934862406305 0 -0.026843604612709078 -0.034420169776804621 0 -0.027054155026741914 -0.033834489923758856 0 -0.026590600133692546 -0.034484081268776515 0 -0.026843604612709078 -0.034420169776804621 0 -0.027054155026741914 -0.033834489923758856 0 -0.026977130748609187 -0.033966340008898713 0 -0.026843604612709078 -0.034420169776804621 0 -0.026726760912101747 -0.03425080755675293 0 -0.026977130748609187 -0.033966340008898713 0 -0.029774151518363021 -0.030526337600519236 0 -0.028228062723857444 -0.032250473537950831 0 -0.026631185309370427 -0.033716402576066888 0 -0.026977130748609187 -0.033966340008898713 0 -0.027335521524493381 -0.033452607770681146 0 -0.027054155026741914 -0.033834489923758856 0 -0.026977130748609187 -0.033966340008898713 0 -0.027335521524493381 -0.033452607770681146 0 -0.033591233938174848 -0.027654171047207805 0 -0.027991919072665971 -0.032322602366992685 0 -0.031527681537941207 -0.031672748485152141 0 -0.026631185309370427 -0.033716402576066888 0 -0.027335521524493381 -0.033452607770681146 0 -0.027991919072665971 -0.032322602366992685 0 -0.027054155026741914 -0.033834489923758856 0 -0.027335521524493381 -0.033452607770681146 0 -0.027349985233661844 -0.033247137099933426 0 -0.027335521524493381 -0.033452607770681146 0 -0.027349985233661844 -0.033247137099933426 0 -0.027991919072665971 -0.032322602366992685 0 -0.027054155026741914 -0.033834489923758856 0 -0.027349985233661844 -0.033247137099933426 0 -0.026770141348147775 -0.033712209682242582 0 -0.027010202374566677 -0.033571263794388698 0 -0.027402996370527781 -0.034291249810706907 0 -0.026458350880701705 -0.034170485674827208 0 -0.027349985233661844 -0.033247137099933426 0 -0.027010202374566677 -0.033571263794388698 0 -0.026770141348147775 -0.033712209682242582 0 -0.027349985233661844 -0.033247137099933426 0 -0.027010202374566677 -0.033571263794388698 0 -0.027991919072665971 -0.032322602366992685 0 -0.027010202374566677 -0.033571263794388698 0 -0.027991919072665971 -0.032322602366992685 0 -0.027402996370527781 -0.034291249810706907 0 -0.031527681537941207 -0.031672748485152141 0 -0.027402996370527781 -0.034291249810706907 0 -0.032796378881195173 -0.033242238474297428 0 -0.027991919072665971 -0.032322602366992685 0 -0.031527681537941207 -0.031672748485152141 0 -0.027402996370527781 -0.034291249810706907 0 -0.031266745718410226 -0.027165034527816292 0 -0.033072625643803061 -0.028296797564203328 0 -0.03479498702496605 -0.020594093734531478 0 -0.034685563835485003 -0.020675847676620434 0 -0.034470434517894201 -0.020474742768745238 0 -0.03479498702496605 -0.020594093734531478 0 -0.034470434517894201 -0.020474742768745238 0 -0.034877820124483552 -0.020452835758420499 0 -0.03479498702496605 -0.020594093734531478 0 -0.034685563835485003 -0.020675847676620434 0 -0.034847768008202634 -0.020776498608022536 0 -0.03451135542855803 -0.020654214941415974 0 -0.03402811772926808 -0.020493451760702209 0 -0.034454053212459021 -0.02074549722816009 0 -0.034470434517894201 -0.020474742768745238 0 -0.03451135542855803 -0.020654214941415974 0 -0.03402811772926808 -0.020493451760702209 0 -0.034685563835485003 -0.020675847676620434 0 -0.034470434517894201 -0.020474742768745238 0 -0.03451135542855803 -0.020654214941415974 0 -0.0349871781106443 -0.029506819113215864 0 -0.035480210180420822 -0.02906771281307088 0 -0.03461479692165273 -0.029585287434602887 0 -0.0349871781106443 -0.029506819113215864 0 -0.03461479692165273 -0.029585287434602887 0 -0.034404877124519194 -0.02998306170359881 0 -0.0349871781106443 -0.029506819113215864 0 -0.035480210180420822 -0.02906771281307088 0 -0.035501053649834975 -0.029087421800801996 0 -0.035337817946577227 -0.028564810179983999 0 -0.035480210180420822 -0.02906771281307088 0 -0.03461479692165273 -0.029585287434602887 0 -0.03461479692165273 -0.029585287434602887 0 -0.033628785443876714 -0.030080169541582272 0 -0.033936950200303261 -0.03027966357800508 0 -0.034571059634415223 -0.028701608261588064 0 -0.03461479692165273 -0.029585287434602887 0 -0.033628785443876714 -0.030080169541582272 0 -0.031527681537941207 -0.031672748485152141 0 -0.033628785443876714 -0.030080169541582272 0 -0.033269143589548349 -0.030804991005521684 0 -0.033628785443876714 -0.030080169541582272 0 -0.033269143589548349 -0.030804991005521684 0 -0.033936950200303261 -0.03027966357800508 0 -0.033767172664150295 -0.030600503856338595 0 -0.033715089570066387 -0.030626313997710864 0 -0.034741523354501931 -0.029747341204476765 0 -0.033042998353386782 -0.030640343438984995 0 -0.033072625643803061 -0.028296797564203328 0 -0.031527681537941207 -0.031672748485152141 0 -0.033269143589548349 -0.030804991005521684 0 -0.033480213170343845 -0.030821907188737476 0 -0.033269143589548349 -0.030804991005521684 0 -0.033767172664150295 -0.030600503856338595 0 -0.033936950200303261 -0.03027966357800508 0 -0.033269143589548349 -0.030804991005521684 0 -0.033767172664150295 -0.030600503856338595 0 -0.033480213170343845 -0.030821907188737476 0 -0.033099298762083784 -0.028357415166888583 0 -0.033072625643803061 -0.028296797564203328 0 -0.033767172664150295 -0.030600503856338595 0 -0.033936950200303261 -0.03027966357800508 0 -0.034404877124519194 -0.02998306170359881 0 -0.033767172664150295 -0.030600503856338595 0 -0.034404877124519194 -0.02998306170359881 0 -0.034741523354501931 -0.029747341204476765 0 -0.03461479692165273 -0.029585287434602887 0 -0.033936950200303261 -0.03027966357800508 0 -0.034404877124519194 -0.02998306170359881 0 -0.0349871781106443 -0.029506819113215864 0 -0.034404877124519194 -0.02998306170359881 0 -0.034741523354501931 -0.029747341204476765 0 -0.033715089570066387 -0.030626313997710864 0 -0.034741523354501931 -0.029747341204476765 0 -0.03580114155464377 -0.028689739992114594 0 -0.033072625643803061 -0.028296797564203328 0 -0.03532058941740835 -0.024321394161008727 0 -0.034877820124483552 -0.020452835758420499 0 -0.034959788889090085 -0.020693402651768993 0 -0.035245201560415773 -0.02079194608307294 0 -0.03479498702496605 -0.020594093734531478 0 -0.034877820124483552 -0.020452835758420499 0 -0.034959788889090085 -0.020693402651768993 0 -0.03479498702496605 -0.020594093734531478 0 -0.034959788889090085 -0.020693402651768993 0 -0.034847768008202634 -0.020776498608022536 0 -0.034741523354501931 -0.029747341204476765 0 -0.035501053649834975 -0.029087421800801996 0 -0.03580114155464377 -0.028689739992114594 0 -0.0349871781106443 -0.029506819113215864 0 -0.034741523354501931 -0.029747341204476765 0 -0.035501053649834975 -0.029087421800801996 0 -0.035501053649834975 -0.029087421800801996 0 -0.035875869941182394 -0.028401365187494195 0 -0.03580114155464377 -0.028689739992114594 0 -0.035501053649834975 -0.029087421800801996 0 -0.035875869941182394 -0.028401365187494195 0 -0.036067946446631041 -0.028527424490343078 0 -0.035840613504167826 -0.027716575847738355 0 -0.034997153309001119 -0.028527030149461532 0 -0.034999282285037271 -0.023869511193392826 0 -0.035875869941182394 -0.028401365187494195 0 -0.036067946446631041 -0.028527424490343078 0 -0.036073950408973897 -0.027676538510419881 0 -0.035480210180420822 -0.02906771281307088 0 -0.036067946446631041 -0.028527424490343078 0 -0.035856574481982532 -0.028683613657191721 0 -0.035480210180420822 -0.02906771281307088 0 -0.035501053649834975 -0.029087421800801996 0 -0.036067946446631041 -0.028527424490343078 0 -0.036067946446631041 -0.028527424490343078 0 -0.035856574481982532 -0.028683613657191721 0 -0.03632233570935503 -0.02864282753130536 0 -0.035337817946577227 -0.028564810179983999 0 -0.035480210180420822 -0.02906771281307088 0 -0.035856574481982532 -0.028683613657191721 0 -0.036067946446631041 -0.028527424490343078 0 -0.03632233570935503 -0.02864282753130536 0 -0.035840613504167826 -0.027716575847738355 0 -0.036067946446631041 -0.028527424490343078 0 -0.036073950408973897 -0.027676538510419881 0 -0.035840613504167826 -0.027716575847738355 0 -0.035840613504167826 -0.027716575847738355 0 -0.03568724660476346 -0.02930218318599075 0 -0.034997153309001119 -0.028527030149461532 0 -0.03632233570935503 -0.02864282753130536 0 -0.035840613504167826 -0.027716575847738355 0 -0.03568724660476346 -0.02930218318599075 0 -0.034953750215644279 -0.03169704630422697 0 -0.03568724660476346 -0.02930218318599075 0 -0.034997153309001119 -0.028527030149461532 0 -0.034953750215644279 -0.03169704630422697 0 -0.03568724660476346 -0.02930218318599075 0 -0.036344590789539576 -0.030802714952930479 0 -0.038352011716691038 -0.031282065703586923 0 -0.036344590789539576 -0.030802714952930479 0 -0.037356521938234057 -0.029868403907942691 0 -0.035154959975399219 -0.027369110454290056 0 -0.034987390251760606 -0.028039934862406305 0 -0.035865837001018516 -0.028062819285853989 0 -0.032793728874127029 -0.032554364042981489 0 -0.036682074723524291 -0.028809794549208029 0 -0.035856574481982532 -0.028683613657191721 0 -0.03632233570935503 -0.02864282753130536 0 -0.035865837001018516 -0.028062819285853989 0 -0.036382379726565259 -0.028717510491598989 0 -0.036682074723524291 -0.028809794549208029 0 -0.035337817946577227 -0.028564810179983999 0 -0.035856574481982532 -0.028683613657191721 0 -0.035865837001018516 -0.028062819285853989 0 -0.03632233570935503 -0.02864282753130536 0 -0.036344590789539576 -0.030802714952930479 0 -0.037356521938234057 -0.029868403907942691 0 -0.03632233570935503 -0.02864282753130536 0 -0.03568724660476346 -0.02930218318599075 0 -0.036344590789539576 -0.030802714952930479 0 -0.017589790908453803 -0.035446412052621709 0 -0.01729727622856083 -0.034921572193621686 0 -0.017156792981779197 -0.035623743177894809 0 -0.017589790908453803 -0.035446412052621709 0 -0.018036995378999231 -0.035564239093696597 0 -0.017349524010408714 -0.035010160337375619 0 -0.018036995378999231 -0.035564239093696597 0 -0.017965927362207722 -0.035661767657442549 0 -0.018981300901200624 -0.035685508767476094 0 -0.017589790908453803 -0.035446412052621709 0 -0.018036995378999231 -0.035564239093696597 0 -0.017965927362207722 -0.035661767657442549 0 -0.017589790908453803 -0.035446412052621709 0 -0.017965927362207722 -0.035661767657442549 0 -0.017156792981779197 -0.035623743177894809 0 -0.017965927362207722 -0.035661767657442549 0 -0.019167556977360209 -0.034999573051549257 0 -0.016695308433769901 -0.035709502137316024 0 -0.017965927362207722 -0.035661767657442549 0 -0.019167556977360209 -0.034999573051549257 0 -0.018981300901200624 -0.035685508767476094 0 -0.019167556977360209 -0.034999573051549257 0 -0.020546289457473346 -0.035522393979981547 0 -0.021564635694712807 -0.034999306023362951 0 -0.019167556977360209 -0.034999573051549257 0 -0.018981300901200624 -0.035685508767476094 0 -0.020546289457473346 -0.035522393979981547 0 -0.021569487865078688 -0.03499988550591069 0 -0.023703818531273319 -0.035426524688072628 0 -0.023378021358042345 -0.035296881544893417 0 -0.021015814337609476 -0.03516810218762749 0 -0.024735671157260289 -0.035594530746037127 0 -0.020546289457473346 -0.035522393979981547 0 -0.021564635694712807 -0.034999306023362951 0 -0.020858732087993576 -0.037139661181852898 0 -0.019602181832019696 -0.035435520682164094 0 -0.024735671157260289 -0.035594530746037127 0 -0.018981300901200624 -0.035685508767476094 0 -0.020546289457473346 -0.035522393979981547 0 -0.018843841981877888 -0.035664163893303714 0 -0.024735671157260289 -0.035594530746037127 0 -0.026215943616388643 -0.033389958241778664 0 -0.034326388918309379 -0.035241363763669195 0 -0.034597930295639914 -0.031748714728897495 0 -0.033622941752617333 -0.032402532966314283 0 -0.018843841981877888 -0.035664163893303714 0 -0.01819969235556429 -0.035539054432872766 0 -0.017350488455920885 -0.035296506749647759 0 -0.018981300901200624 -0.035685508767476094 0 -0.018843841981877888 -0.035664163893303714 0 -0.01819969235556429 -0.035539054432872766 0 -0.024735671157260289 -0.035594530746037127 0 -0.029669653045790237 -0.033869506154461368 0 -0.018036995378999231 -0.035564239093696597 0 -0.018981300901200624 -0.035685508767476094 0 -0.01819969235556429 -0.035539054432872766 0 -0.018036995378999231 -0.035564239093696597 0 -0.01819969235556429 -0.035539054432872766 0 -0.017615709839829689 -0.035291253217654382 0 -0.018036995378999231 -0.035564239093696597 0 -0.017615709839829689 -0.035291253217654382 0 -0.017349524010408714 -0.035010160337375619 0 -0.017615709839829689 -0.035291253217654382 0 -0.017350488455920885 -0.035296506749647759 0 -0.01705572007420153 -0.034958278965220392 0 -0.01819969235556429 -0.035539054432872766 0 -0.017615709839829689 -0.035291253217654382 0 -0.017350488455920885 -0.035296506749647759 0 -0.028130724184837412 -0.034996928232009318 0 -0.022993053509092105 -0.034999210713622518 0 -0.025556720641594453 -0.035279462688391452 0 -0.034597930295639914 -0.031748714728897495 0 -0.033622941752617333 -0.032402532966314283 0 -0.03279225358943897 -0.02941382631569835 0 -0.029669653045790237 -0.033869506154461368 0 -0.029200066725404126 -0.03186172827424083 0 -0.024913621300822426 -0.03519150217355798 0 -0.025413935726371732 -0.034949542932939767 0 -0.024874159889512314 -0.035218068096118958 0 -0.024913621300822426 -0.03519150217355798 0 -0.025413935726371732 -0.034949542932939767 0 -0.025781245147780261 -0.034682785233012492 0 -0.025560569810903332 -0.034935325019251076 0 -0.025413935726371732 -0.034949542932939767 0 -0.024874159889512314 -0.035218068096118958 0 -0.025560569810903332 -0.034935325019251076 0 -0.024874159889512314 -0.035218068096118958 0 -0.025527107325596789 -0.035166327311599299 0 -0.024874159889512314 -0.035218068096118958 0 -0.024368956575716159 -0.035323386615025855 0 -0.025527107325596789 -0.035166327311599299 0 -0.024874159889512314 -0.035218068096118958 0 -0.024138482951825843 -0.035342663370180959 0 -0.024368956575716159 -0.035323386615025855 0 -0.023703818531273319 -0.035426524688072628 0 -0.024913621300822426 -0.03519150217355798 0 -0.024410114301677294 -0.