<?xml version="1.0"?>
<VTKFile type="UnstructuredGrid" version="0.1" byte_order="LittleEndian">
<UnstructuredGrid>
<Piece NumberOfPoints="31364" NumberOfCells="10963">
<Points>
<DataArray type="Float64" NumberOfComponents="3" format="ascii">
-0.5 -0.5 0 -0.47923561459112152 -0.44443574669253838 0 -0.5 -0.40184768675683319 0 -0.5 -0.5 0 -0.46012471450501102 -0.46780108282305249 0 -0.47923561459112152 -0.44443574669253838 0 -0.5 -0.5 0 -0.44174741682060992 -0.48083562005243102 0 -0.40748061551896958 -0.5 0 -0.5 -0.5 0 -0.44174741682060992 -0.48083562005243102 0 -0.46012471450501102 -0.46780108282305249 0 -0.44174741682060992 -0.48083562005243102 0 -0.46012471450501102 -0.46780108282305249 0 -0.43236737799726033 -0.45966166965137317 0 -0.44826723710970118 -0.45199458572407242 0 -0.46119552876922271 -0.44018491488949402 0 -0.4364097597143915 -0.43618808862509217 0 -0.44826723710970118 -0.45199458572407242 0 -0.4364097597143915 -0.43618808862509217 0 -0.43236737799726033 -0.45966166965137317 0 -0.44826723710970118 -0.45199458572407242 0 -0.4364097597143915 -0.43618808862509217 0 -0.44826723710970118 -0.45199458572407242 0 -0.46012471450501102 -0.46780108282305249 0 -0.43236737799726033 -0.45966166965137317 0 -0.44826723710970118 -0.45199458572407242 0 -0.46012471450501102 -0.46780108282305249 0 -0.44826723710970118 -0.45199458572407242 0 -0.46012471450501102 -0.46780108282305249 0 -0.46119552876922271 -0.44018491488949402 0 -0.46012471450501102 -0.46780108282305249 0 -0.46119552876922271 -0.44018491488949402 0 -0.47923561459112152 -0.44443574669253838 0 -0.47923561459112152 -0.44443574669253838 0 -0.4734472738674676 -0.41189007714261022 0 -0.5 -0.40184768675683319 0 -0.46119552876922271 -0.44018491488949402 0 -0.47923561459112152 -0.44443574669253838 0 -0.4734472738674676 -0.41189007714261022 0 -0.48518733011659848 -0.38506416976922292 0 -0.5 -0.40184768675683319 0 -0.48407733713093642 -0.36224817451159441 0 -0.4734472738674676 -0.41189007714261022 0 -0.5 -0.40184768675683319 0 -0.49196603094400598 -0.39974107140136972 0 -0.48518733011659848 -0.38506416976922292 0 -0.5 -0.40184768675683319 0 -0.49196603094400598 -0.39974107140136972 0 -0.48518733011659848 -0.38506416976922292 0 -0.49196603094400598 -0.39974107140136972 0 -0.47685174507506672 -0.39765484536907908 0 -0.4734472738674676 -0.41189007714261022 0 -0.49196603094400598 -0.39974107140136972 0 -0.47685174507506672 -0.39765484536907908 0 -0.4734472738674676 -0.41189007714261022 0 -0.49196603094400598 -0.39974107140136972 0 -0.4734472738674676 -0.41189007714261022 0 -0.47685174507506672 -0.39765484536907908 0 -0.45844589060966062 -0.40086057772148542 0 -0.48518733011659848 -0.38506416976922292 0 -0.46920744949757692 -0.38740384469278488 0 -0.46750842263902792 -0.37228425141029542 0 -0.48518733011659848 -0.38506416976922292 0 -0.47685174507506672 -0.39765484536907908 0 -0.46920744949757692 -0.38740384469278488 0 -0.46920744949757692 -0.38740384469278488 0 -0.45470384220908622 -0.3815417340125149 0 -0.45844589060966062 -0.40086057772148542 0 -0.46920744949757692 -0.38740384469278488 0 -0.45470384220908622 -0.3815417340125149 0 -0.46750842263902792 -0.37228425141029542 0 -0.47685174507506672 -0.39765484536907908 0 -0.46920744949757692 -0.38740384469278488 0 -0.45844589060966062 -0.40086057772148542 0 -0.45470384220908622 -0.3815417340125149 0 -0.45844589060966062 -0.40086057772148542 0 -0.44007732661823112 -0.39111384719816639 0 -0.45844589060966062 -0.40086057772148542 0 -0.44007732661823112 -0.39111384719816639 0 -0.43951315129474572 -0.41118031471198407 0 -0.45470384220908622 -0.3815417340125149 0 -0.44007732661823112 -0.39111384719816639 0 -0.4379103329822206 -0.37308902279941408 0 -0.46119552876922271 -0.44018491488949402 0 -0.4734472738674676 -0.41189007714261022 0 -0.45492851679092922 -0.42403908288385062 0 -0.4734472738674676 -0.41189007714261022 0 -0.45844589060966062 -0.40086057772148542 0 -0.45492851679092922 -0.42403908288385062 0 -0.4734472738674676 -0.41189007714261022 0 -0.45492851679092922 -0.42403908288385062 0 -0.45844589060966062 -0.40086057772148542 0 -0.45492851679092922 -0.42403908288385062 0 -0.43951315129474572 -0.41118031471198407 0 -0.46119552876922271 -0.44018491488949402 0 -0.45492851679092922 -0.42403908288385062 0 -0.4364097597143915 -0.43618808862509217 0 -0.45492851679092922 -0.42403908288385062 0 -0.4364097597143915 -0.43618808862509217 0 -0.45492851679092922 -0.42403908288385062 0 -0.43951315129474572 -0.41118031471198407 0 -0.4364097597143915 -0.43618808862509217 0 -0.4364097597143915 -0.43618808862509217 0 -0.41902722362035227 -0.41301646474731651 0 -0.41973426710848538 -0.43059808026916357 0 -0.4364097597143915 -0.43618808862509217 0 -0.41902722362035227 -0.41301646474731651 0 -0.43951315129474572 -0.41118031471198407 0 -0.41902722362035227 -0.41301646474731651 0 -0.42688961785318807 -0.39799734463124692 0 -0.43951315129474572 -0.41118031471198407 0 -0.4364097597143915 -0.43618808862509217 0 -0.41902722362035227 -0.41301646474731651 0 -0.41902722362035227 -0.41301646474731651 0 -0.39931438752054038 -0.40356587878924738 0 -0.40322753768877378 -0.4134355993345547 0 -0.41902722362035227 -0.41301646474731651 0 -0.41110160916373939 -0.42271259208851952 0 -0.40322753768877378 -0.4134355993345547 0 -0.41110160916373939 -0.42271259208851952 0 -0.41053167651649131 -0.43436760493744669 0 -0.40054609476145547 -0.42214176313073309 0 -0.41110160916373939 -0.42271259208851952 0 -0.41053167651649131 -0.43436760493744669 0 -0.41973426710848538 -0.43059808026916357 0 -0.41053167651649131 -0.43436760493744669 0 -0.41973426710848538 -0.43059808026916357 0 -0.42038044346588288 -0.44670392693575173 0 -0.41902722362035227 -0.41301646474731651 0 -0.41110160916373939 -0.42271259208851952 0 -0.41973426710848538 -0.43059808026916357 0 -0.44007732661823112 -0.39111384719816639 0 -0.42190409334729168 -0.38180158975939521 0 -0.4379103329822206 -0.37308902279941408 0 -0.44007732661823112 -0.39111384719816639 0 -0.42190409334729168 -0.38180158975939521 0 -0.42688961785318807 -0.39799734463124692 0 -0.44007732661823112 -0.39111384719816639 0 -0.43951315129474572 -0.41118031471198407 0 -0.42688961785318807 -0.39799734463124692 0 -0.41902722362035227 -0.41301646474731651 0 -0.40164468752631333 -0.3898448408695408 0 -0.41902722362035227 -0.41301646474731651 0 -0.42688961785318807 -0.39799734463124692 0 -0.41588964973809889 -0.393022640911173 0 -0.42190409334729168 -0.38180158975939521 0 -0.42688961785318807 -0.39799734463124692 0 -0.41588964973809889 -0.393022640911173 0 -0.41902722362035227 -0.41301646474731651 0 -0.40164468752631333 -0.3898448408695408 0 -0.39931438752054038 -0.40356587878924738 0 -0.41902722362035227 -0.41301646474731651 0 -0.41588964973809889 -0.393022640911173 0 -0.40164468752631333 -0.3898448408695408 0 -0.42190409334729168 -0.38180158975939521 0 -0.41588964973809889 -0.393022640911173 0 -0.40905564308123771 -0.38256147179756722 0 -0.41588964973809889 -0.393022640911173 0 -0.40905564308123771 -0.38256147179756722 0 -0.40164468752631333 -0.3898448408695408 0 -0.42190409334729168 -0.38180158975939521 0 -0.40905564308123771 -0.38256147179756722 0 -0.40708191026735863 -0.37005123040099891 0 -0.39875787452712569 -0.37808705704672813 0 -0.38920413716619873 -0.38567415539685779 0 -0.38587601133240879 -0.36241209401787738 0 -0.40905564308123771 -0.38256147179756722 0 -0.39875787452712569 -0.37808705704672813 0 -0.40708191026735863 -0.37005123040099891 0 -0.40905564308123771 -0.38256147179756722 0 -0.39875787452712569 -0.37808705704672813 0 -0.40164468752631333 -0.3898448408695408 0 -0.39875787452712569 -0.37808705704672813 0 -0.40164468752631333 -0.3898448408695408 0 -0.38920413716619873 -0.38567415539685779 0 -0.39931438752054038 -0.40356587878924738 0 -0.38920413716619873 -0.38567415539685779 0 -0.39253226299999161 -0.40893621677583791 0 -0.40164468752631333 -0.3898448408695408 0 -0.39931438752054038 -0.40356587878924738 0 -0.38920413716619873 -0.38567415539685779 0 -0.38920413716619873 -0.38567415539685779 0 -0.39253226299999161 -0.40893621677583791 0 -0.38314814314964168 -0.40378743179418708 0 -0.37734110255115211 -0.39748869041215379 0 -0.38920413716619873 -0.38567415539685779 0 -0.38314814314964168 -0.40378743179418708 0 -0.38920413716619873 -0.38567415539685779 0 -0.39253226299999161 -0.40893621677583791 0 -0.38314814314964168 -0.40378743179418708 0 -0.37734110255115211 -0.39748869041215379 0 -0.37270150913827438 -0.40629795572893979 0 -0.37658995856295657 -0.38657385581986459 0 -0.38587601133240879 -0.36241209401787738 0 -0.36581332631384972 -0.37995636686610401 0 -0.38920413716619873 -0.38567415539685779 0 -0.37658995856295657 -0.38657385581986459 0 -0.38587601133240879 -0.36241209401787738 0 -0.37734110255115211 -0.39748869041215379 0 -0.38920413716619873 -0.38567415539685779 0 -0.37658995856295657 -0.38657385581986459 0 -0.39348358264628303 -0.42601102118616252 0 -0.39739403950095109 -0.43501083691664061 0 -0.40054609476145547 -0.42214176313073309 0 -0.39348358264628303 -0.42601102118616252 0 -0.40054609476145547 -0.42214176313073309 0 -0.3944916053609237 -0.41880146558125181 0 -0.39348358264628303 -0.42601102118616252 0 -0.39739403950095109 -0.43501083691664061 0 -0.38671421965396019 -0.43255210866021482 0 -0.41053167651649131 -0.43436760493744669 0 -0.39739403950095109 -0.43501083691664061 0 -0.40054609476145547 -0.42214176313073309 0 -0.40054609476145547 -0.42214176313073309 0 -0.40322753768877378 -0.4134355993345547 0 -0.39759071182071271 -0.41502243956528728 0 -0.41110160916373939 -0.42271259208851952 0 -0.40054609476145547 -0.42214176313073309 0 -0.40322753768877378 -0.4134355993345547 0 -0.39931438752054038 -0.40356587878924738 0 -0.40322753768877378 -0.4134355993345547 0 -0.39692366940308182 -0.41017286207349157 0 -0.40322753768877378 -0.4134355993345547 0 -0.39692366940308182 -0.41017286207349157 0 -0.39759071182071271 -0.41502243956528728 0 -0.39276465188932819 -0.41056050770640551 0 -0.39253226299999161 -0.40893621677583791 
[...]
<PointData Scalars="" Vectors="displacement," Tensors="">
<DataArray type="Float64" Name="displacement" NumberOfComponents="3" format="ascii">
-7.0776470809999617e-07 -0.034997332203153014 0 -0.00011475025860685756 -0.03191073450640821 0 -2.9365247542281711e-07 -0.028131581707903031 0 -7.0776470809999617e-07 -0.034997332203153014 0 -0.00012508666184541636 -0.033693825090670704 0 -0.00011475025860685756 -0.03191073450640821 0 -7.0776470809999617e-07 -0.034997332203153014 0 -0.00013764026494953675 -0.034454191866780559 0 -1.3096613706401907e-07 -0.034998388796229567 0 -7.0776470809999617e-07 -0.034997332203153014 0 -0.00013764026494953675 -0.034454191866780559 0 -0.00012508666184541636 -0.033693825090670704 0 -0.00013764026494953675 -0.034454191866780559 0 -0.00012508666184541636 -0.033693825090670704 0 5.3747727613134978e-05 -0.034458044220651372 0 -0.00017295082192173478 -0.032756528005293307 0 -9.3977854012143567e-05 -0.032369577491408931 0 3.8222547188235214e-05 -0.03284372665287192 0 0.0001734456815994453 -0.034096148825558753 0 0.00025810866357408918 -0.034313315803656423 0 5.3747727613134978e-05 -0.034458044220651372 0 0.00017394689394864549 -0.033661882447130857 0 -0.00055280679725861468 -0.031982217020400681 0 0.0001734456815994453 -0.034096148825558753 0 -0.00012508666184541636 -0.033693825090670704 0 5.3747727613134978e-05 -0.034458044220651372 0 0.00017394689394864549 -0.033661882447130857 0 -0.00021937452705014584 -0.033513951318302905 0 -0.00017295082192173478 -0.032756528005293307 0 -0.00012508666184541636 -0.033693825090670704 0 -9.3977854012143567e-05 -0.032369577491408931 0 -0.00012508666184541636 -0.033693825090670704 0 -9.3977854012143567e-05 -0.032369577491408931 0 -0.00011475025860685756 -0.03191073450640821 0 -0.00011475025860685756 -0.03191073450640821 0 0.00038343297141776704 -0.030659238792017214 0 -2.9365247542281711e-07 -0.028131581707903031 0 -9.3977854012143567e-05 -0.032369577491408931 0 -0.00011475025860685756 -0.03191073450640821 0 0.00038343297141776704 -0.030659238792017214 0 -0.0002885771192584191 -0.02713231633504181 0 -2.9365247542281711e-07 -0.028131581707903031 0 -0.00024102492999713968 -0.025860877195606414 0 0.00038343297141776704 -0.030659238792017214 0 -2.9365247542281711e-07 -0.028131581707903031 0 -4.5272345426805577e-05 -0.028224172713212307 0 -0.0002885771192584191 -0.02713231633504181 0 -2.9365247542281711e-07 -0.028131581707903031 0 -4.5272345426805577e-05 -0.028224172713212307 0 -0.0002885771192584191 -0.02713231633504181 0 -4.5272345426805577e-05 -0.028224172713212307 0 -0.0005771197942797873 -0.027346244114944847 0 -0.00097727142862289763 -0.027268619984043462 0 -4.5272345426805577e-05 -0.028224172713212307 0 -0.0005771197942797873 -0.027346244114944847 0 -0.00038729700393386169 -0.029101819996334485 0 -0.00013022873173392896 -0.028437059748022436 0 -0.00097727142862289763 -0.027268619984043462 0 -0.0005771197942797873 -0.027346244114944847 0 -0.00097535994786495924 -0.027639347767888626 0 -0.0002885771192584191 -0.02713231633504181 0 -0.00055531378606533456 -0.027243775666252652 0 -0.00042422667439781633 -0.026894627647968992 0 -0.0002885771192584191 -0.02713231633504181 0 -0.0005771197942797873 -0.027346244114944847 0 -0.00055531378606533456 -0.027243775666252652 0 -0.00055531378606533456 -0.027243775666252652 0 -0.00059469048499244317 -0.027579585601580092 0 -0.00097535994786495924 -0.027639347767888626 0 -0.00055531378606533456 -0.027243775666252652 0 -0.00059469048499244317 -0.027579585601580092 0 -0.00042422667439781633 -0.026894627647968992 0 -0.0005771197942797873 -0.027346244114944847 0 -0.00055531378606533456 -0.027243775666252652 0 -0.00097535994786495924 -0.027639347767888626 0 -0.00059469048499244317 -0.027579585601580092 0 -0.00097535994786495924 -0.027639347767888626 0 -0.00091631729208442169 -0.028372148283965427 0 -0.00097535994786495924 -0.027639347767888626 0 -0.00091631729208442169 -0.028372148283965427 0 -0.0016571441214114299 -0.028522098547594705 0 -0.00059469048499244317 -0.027579585601580092 0 -0.00091631729208442169 -0.028372148283965427 0 -0.00036448749680648271 -0.02837879101089252 0 -9.3977854012143567e-05 -0.032369577491408931 0 0.00038343297141776704 -0.030659238792017214 0 0.00029904791515222726 -0.032294630281549871 0 -0.00097727142862289763 -0.027268619984043462 0 -0.00097535994786495924 -0.027639347767888626 0 -0.0020015727606626696 -0.027876232640034474 0 -0.00038729700393386169 -0.029101819996334485 0 -0.00088958985471305921 -0.029933337703542871 0 -0.00097535994786495924 -0.027639347767888626 0 -0.0020015727606626696 -0.027876232640034474 0 -0.0016571441214114299 -0.028522098547594705 0 -9.3977854012143567e-05 -0.032369577491408931 0 0.00029904791515222726 -0.032294630281549871 0 3.8222547188235214e-05 -0.03284372665287192 0 -0.00088958985471305921 -0.029933337703542871 0 -0.00055280679725861468 -0.031982217020400681 0 -0.0020015727606626696 -0.027876232640034474 0 -0.0016571441214114299 -0.028522098547594705 0 -0.0026530823065394507 -0.028683985066696324 0 0.00017657153887329599 -0.033427018135586309 0 0.00011937740494369929 -0.03346952201236944 0 0.00019370650244654455 -0.033466870928503582 0 -0.00055280679725861468 -0.031982217020400681 0 -0.0010696352655268752 -0.031288796240229864 0 -0.0016571441214114299 -0.028522098547594705 0 -0.0019758839863391773 -0.029509484023533979 0 -0.0012386075590817621 -0.02915796595778096 0 -0.0016571441214114299 -0.028522098547594705 0 -0.0026530823065394507 -0.028683985066696324 0 -0.0019758839863391773 -0.029509484023533979 0 0.00011937740494369929 -0.03346952201236944 0 -0.00017175783689355638 -0.032092792185771844 0 0.00013767671004590588 -0.032834085130151187 0 0.00011937740494369929 -0.03346952201236944 0 0.00021492653734552308 -0.033332025984237519 0 0.00013767671004590588 -0.032834085130151187 0 0.00021492653734552308 -0.033332025984237519 0 0.000179487939121469 -0.033571690933080239 0 0.00016790555285147531 -0.033248344210285677 0 0.00021492653734552308 -0.033332025984237519 0 0.000179487939121469 -0.033571690933080239 0 0.00019370650244654455 -0.033466870928503582 0 0.000179487939121469 -0.033571690933080239 0 0.00019370650244654455 -0.033466870928503582 0 5.0867245590735471e-05 -0.03352944468636776 0 0.00011937740494369929 -0.03346952201236944 0 0.00021492653734552308 -0.033332025984237519 0 0.00019370650244654455 -0.033466870928503582 0 -0.00091631729208442169 -0.028372148283965427 0 -0.00058572501759852425 -0.029462545633523962 0 -0.00036448749680648271 -0.02837879101089252 0 -0.00091631729208442169 -0.028372148283965427 0 -0.00058572501759852425 -0.029462545633523962 0 -0.0012386075590817621 -0.02915796595778096 0 -0.00091631729208442169 -0.028372148283965427 0 -0.0016571441214114299 -0.028522098547594705 0 -0.0012386075590817621 -0.02915796595778096 0 -0.0010696352655268752 -0.031288796240229864 0 -0.00065553600804324952 -0.03154713222668503 0 -0.0019758839863391773 -0.029509484023533979 0 -0.0012386075590817621 -0.02915796595778096 0 -0.001002410294252632 -0.029953829212432951 0 -0.00058572501759852425 -0.029462545633523962 0 -0.0012386075590817621 -0.02915796595778096 0 -0.001002410294252632 -0.029953829212432951 0 0.00011937740494369929 -0.03346952201236944 0 -0.0008032751453688657 -0.031379629271034964 0 -0.00017175783689355638 -0.032092792185771844 0 -0.0019758839863391773 -0.029509484023533979 0 -0.001002410294252632 -0.029953829212432951 0 -0.0008032751453688657 -0.031379629271034964 0 -0.00058572501759852425 -0.029462545633523962 0 -0.001002410294252632 -0.029953829212432951 0 -0.00056702486265612021 -0.030449342847353726 0 -0.001002410294252632 -0.029953829212432951 0 -0.00056702486265612021 -0.030449342847353726 0 -0.0008032751453688657 -0.031379629271034964 0 -0.00058572501759852425 -0.029462545633523962 0 -0.00056702486265612021 -0.030449342847353726 0 -0.00018863557418573256 -0.030337401098310835 0 -0.0005272569437563884 -0.030914836916006445 0 -0.00081866302261595443 -0.031229072477772662 0 4.7399093772831457e-05 -0.03124851112656923 0 -0.00056702486265612021 -0.030449342847353726 0 -0.0005272569437563884 -0.030914836916006445 0 -0.00018863557418573256 -0.030337401098310835 0 -0.00056702486265612021 -0.030449342847353726 0 -0.0005272569437563884 -0.030914836916006445 0 -0.0008032751453688657 -0.031379629271034964 0 -0.0005272569437563884 -0.030914836916006445 0 -0.0008032751453688657 -0.031379629271034964 0 -0.00081866302261595443 -0.031229072477772662 0 -0.00017175783689355638 -0.032092792185771844 0 -0.00081866302261595443 -0.031229072477772662 0 6.9821886617705544e-05 -0.031799376170174469 0 -0.0008032751453688657 -0.031379629271034964 0 -0.00017175783689355638 -0.032092792185771844 0 -0.00081866302261595443 -0.031229072477772662 0 -0.00075558853860422314 -0.03286976940797888 0 -0.00026033386511939313 -0.033134067463433177 0 -0.00044100589349302865 -0.034392521569871631 0 -0.00052809616123798437 -0.034315615518554075 0 -0.00069610476299932758 -0.034487094027908373 0 -0.00044100589349302865 -0.034392521569871631 0 -0.00069610476299932758 -0.034487094027908373 0 -0.00036981961683283613 -0.03451443202683422 0 -0.00044100589349302865 -0.034392521569871631 0 -0.00052809616123798437 -0.034315615518554075 0 -0.00040720126344393815 -0.034252520129394087 0 -0.00068043078444858822 -0.034306641569244428 0 -0.0010758675492577169 -0.034440783005367313 0 -0.00077012451196144228 -0.034160122000818985 0 -0.00069610476299932758 -0.034487094027908373 0 -0.00068043078444858822 -0.034306641569244428 0 -0.0010758675492577169 -0.034440783005367313 0 -0.00052809616123798437 -0.034315615518554075 0 -0.00069610476299932758 -0.034487094027908373 0 -0.00068043078444858822 -0.034306641569244428 0 0.00013275934719886171 -0.033504269396973992 0 9.9299440507694841e-05 -0.033703050559179347 0 0.00016790555285147531 -0.033248344210285677 0 0.00013275934719886171 -0.033504269396973992 0 0.00016790555285147531 -0.033248344210285677 0 0.0001509988776468351 -0.033239544458132278 0 0.00013275934719886171 -0.033504269396973992 0 9.9299440507694841e-05 -0.033703050559179347 0 8.9803585978781523e-05 -0.03382633446461826 0 0.000179487939121469 -0.033571690933080239 0 9.9299440507694841e-05 -0.033703050559179347 0 0.00016790555285147531 -0.033248344210285677 0 0.00016790555285147531 -0.033248344210285677 0 0.00013767671004590588 -0.032834085130151187 0 0.00014272907819166882 -0.032981139594000418 0 0.00021492653734552308 -0.033332025984237519 0 0.00016790555285147531 -0.033248344210285677 0 0.00013767671004590588 -0.032834085130151187 0 -0.00017175783689355638 -0.032092792185771844 0 0.00013767671004590588 -0.032834085130151187 0 0.00010689944223102633 -0.032735612452419648 0 0.00013767671004590588 -0.032834085130151187 0 0.00010689944223102633 -0.032735612452419648 0 0.00014272907819166882 -0.032981139594000418 0 0.0002198298167671013 -0.033073558228273424 0 0.00025781938573612469 -0.03308450799654801 0 0.00017794024604251944 -0.033491712199507598 0 2.5315780391328938e-05 -0.032430016828777851 0 -0.00026033386511939313 -0.033134067463433177 0 -0.00017175783689355638 -0.032092792185771844 0 0.00010689944223102633 -0.032735612452419648 0 0.00024260895151552268 -0.03300865858299705 0 0.00010689944223102633 -0.032735612452419648 0 0.0002198298167671013 -0.033073558228273424 0 0.00014272907819166882 -0.032981139594000418 0 0.00010689944223102633 -0.032735612452419648 0 0.0002198298167671013 -0.033073558228273424 0 0.00024260895151552268 -0.03300865858299705 0 -0.00021804547957550351 -0.033136424234584475 0 -0.00026033386511939313 -0.033134067463433177 0 0.0002198298167671013 -0.033073558228273424 0 0.00014272907819166882 -0.032981139594000418 0 0.0001509988776468351 -0.033239544458132278 0 0.0002198298167671013 -0.033073558228273424 0 0.0001509988776468351 -0.033239544458132278 0 0.00017794024604251944 -0.033491712199507598 0 0.00016790555285147531 -0.033248344210285677 0 0.00014272907819166882 -0.032981139594000418 0 0.0001509988776468351 -0.033239544458132278 0 0.00013275934719886171 -0.033504269396973992 0 0.0001509988776468351 -0.033239544458132278 0 0.00017794024604251944 -0.033491712199507598 0 0.00025781938573612469 -0.03308450799654801 0 0.00017794024604251944 -0.033491712199507598 0 0.00025419220603813516 -0.034173269137823113 0 -0.00026033386511939313 -0.033134067463433177 0 2.4503963727704931e-05 -0.034301824536049401 0 -0.00036981961683283613 -0.03451443202683422 0 -0.00033200855380258702 -0.03432140044177092 0 -0.00016196987149124265 -0.034249929242916109 0 -0.00044100589349302865 -0.034392521569871631 0 -0.00036981961683283613 -0.03451443202683422 0 -0.00033200855380258702 -0.03432140044177092 0 -0.00044100589349302865 -0.034392521569871631 0 -0.00033200855380258702 -0.03432140044177092 0 -0.00040720126344393815 -0.034252520129394087 0 0.00017794024604251944 -0.033491712199507598 0 8.9803585978781523e-05 -0.03382633446461826 0 0.00025419220603813516 -0.034173269137823113 0 0.00013275934719886171 -0.033504269396973992 0 0.00017794024604251944 -0.033491712199507598 0 8.9803585978781523e-05 -0.03382633446461826 0 8.9803585978781523e-05 -0.03382633446461826 0 2.9769480566943003e-05 -0.034172244540491052 0 0.00025419220603813516 -0.034173269137823113 0 8.9803585978781523e-05 -0.03382633446461826 0 2.9769480566943003e-05 -0.034172244540491052 0 -2.0864373147048713e-05 -0.034151085975274213 0 -5.4299207970253767e-05 -0.034657728845286603 0 -1.3096613706401907e-07 -0.034998388796229567 0 -4.4650152807453157e-08 -0.034999662552291137 0 2.9769480566943003e-05 -0.034172244540491052 0 -2.0864373147048713e-05 -0.034151085975274213 0 -4.3379416065542797e-05 -0.034418532900725642 0 9.9299440507694841e-05 -0.033703050559179347 0 -2.0864373147048713e-05 -0.034151085975274213 0 6.3842883304917616e-05 -0.033893807560448748 0 9.9299440507694841e-05 -0.033703050559179347 0 8.9803585978781523e-05 -0.03382633446461826 0 -2.0864373147048713e-05 -0.034151085975274213 0 -2.0864373147048713e-05 -0.034151085975274213 0 6.3842883304917616e-05 -0.033893807560448748 0 -4.1245260312895509e-05 -0.034272745704855882 0 0.000179487939121469 -0.033571690933080239 0 9.9299440507694841e-05 -0.033703050559179347 0 6.3842883304917616e-05 -0.033893807560448748 0 -2.0864373147048713e-05 -0.034151085975274213 0 -4.1245260312895509e-05 -0.034272745704855882 0 -5.4299207970253767e-05 -0.034657728845286603 0 -2.0864373147048713e-05 -0.034151085975274213 0 -4.3379416065542797e-05 -0.034418532900725642 0 -5.4299207970253767e-05 -0.034657728845286603 0 -5.4299207970253767e-05 -0.034657728845286603 0 -8.6122437418603454e-06 -0.034595772846231262 0 -1.3096613706401907e-07 -0.034998388796229567 0 -4.1245260312895509e-05 -0.034272745704855882 0 -5.4299207970253767e-05 -0.034657728845286603 0 -8.6122437418603454e-06 -0.034595772846231262 0 -0.00013764026494953675 -0.034454191866780559 0 -8.6122437418603454e-06 -0.034595772846231262 0 -1.3096613706401907e-07 -0.034998388796229567 0 -0.00013764026494953675 -0.034454191866780559 0 -8.6122437418603454e-06 -0.034595772846231262 0 5.3747727613134978e-05 -0.034458044220651372 0 0.00025810866357408918 -0.034313315803656423 0 5.3747727613134978e-05 -0.034458044220651372 0 6.1497446263016921e-05 -0.034406936212235444 0 0.00017657153887329599 -0.033427018135586309 0 0.00019370650244654455 -0.033466870928503582 0 5.0867245590735471e-05 -0.03352944468636776 0 -0.00055280679725861468 -0.031982217020400681 0 3.5604307664483657e-06 -0.03419406871882176 0 6.3842883304917616e-05 -0.033893807560448748 0 -4.1245260312895509e-05 -0.034272745704855882 0 5.0867245590735471e-05 -0.03352944468636776 0 1.6293100870613486e-05 -0.034130308329535258 0 3.5604307664483657e-06 -0.03419406871882176 0 0.000179487939121469 -0.033571690933080239 0 6.3842883304917616e-05 -0.033893807560448748 0 5.0867245590735471e-05 -0.03352944468636776 0 -4.1245260312895509e-05 -0.034272745704855882 0 5.3747727613134978e-05 -0.034458044220651372 0 6.1497446263016921e-05 -0.034406936212235444 0 -4.1245260312895509e-05 -0.034272745704855882 0 -8.6122437418603454e-06 -0.034595772846231262 0 5.3747727613134978e-05 -0.034458044220651372 0 -0.00013674069987604508 -0.017543399673032156 0 -0.00016720603389578501 -0.017198526137126545 0 -0.00036135815428099243 -0.017344201023865219 0 -0.00013674069987604508 -0.017543399673032156 0 7.3613148532221341e-05 -0.017912878825805782 0 0.00014847424487295704 -0.017321454548529312 0 7.3613148532221341e-05 -0.017912878825805782 0 -0.00021313185120991863 -0.017936168200511946 0 3.7478664974327409e-05 -0.018859285214418185 0 -0.00013674069987604508 -0.017543399673032156 0 7.3613148532221341e-05 -0.017912878825805782 0 -0.00021313185120991863 -0.017936168200511946 0 -0.00013674069987604508 -0.017543399673032156 0 -0.00021313185120991863 -0.017936168200511946 0 -0.00036135815428099243 -0.017344201023865219 0 -0.00021313185120991863 -0.017936168200511946 0 -2.4713760315932671e-06 -0.01916857979172145 0 -0.00040464837879853255 -0.016941518172150803 0 -0.00021313185120991863 -0.017936168200511946 0 -2.4713760315932671e-06 -0.01916857979172145 0 3.7478664974327409e-05 -0.018859285214418185 0 -2.4713760315932671e-06 -0.01916857979172145 0 7.8242424432085263e-05 -0.020413192064409533 0 3.6138040665994831e-06 -0.021564058833856578 0 -2.4713760315932671e-06 -0.01916857979172145 0 3.7478664974327409e-05 -0.018859285214418185 0 7.8242424432085263e-05 -0.020413192064409533 0 4.0859502333583167e-06 -0.021570342462401262 0 0.0021016651659670131 -0.025349344111216962 0 0.00055837981102777306 -0.024057100946006198 0 0.0004094806745060698 -0.022037306403314846 0 0.0011272420237807017 -0.020933650516283261 0 7.8242424432085263e-05 -0.020413192064409533 0 3.6138040665994831e-06 -0.021564058833856578 0 0.0012629954122114855 -0.018348945511501343 0 0.0004057208790467702 -0.019442785668254848 0 0.0011272420237807017 -0.020933650516283261 0 3.7478664974327409e-05 -0.018859285214418185 0 7.8242424432085263e-05 -0.020413192064409533 0 0.00099190420863385482 -0.018727923729601251 0 0.0011272420237807017 -0.020933650516283261 0 0.00093757079180653124 -0.020392690491559822 0 0.0010087058835960582 -0.020435883663439128 0 0.00095018078335590425 -0.023733565697680679 0 6.4931363654574165e-05 -0.023124795791514517 0 0.00099190420863385482 -0.018727923729601251 0 0.00050685828749846395 -0.018111791341714763 0 0.00095259313624193771 -0.017639414359183835 0 3.7478664974327409e-05 -0.018859285214418185 0 0.00099190420863385482 -0.018727923729601251 0 0.00050685828749846395 -0.018111791341714763 0 0.0011272420237807017 -0.020933650516283261 0 0.00093223582402722732 -0.02558261548405651 0 7.3613148532221341e-05 -0.017912878825805782 0 3.7478664974327409e-05 -0.018859285214418185 0 0.00050685828749846395 -0.018111791341714763 0 7.3613148532221341e-05 -0.017912878825805782 0 0.00050685828749846395 -0.018111791341714763 0 0.0004852459444664028 -0.017647812513425242 0 7.3613148532221341e-05 -0.017912878825805782 0 0.0004852459444664028 -0.017647812513425242 0 0.00014847424487295704 -0.017321454548529312 0 0.0004852459444664028 -0.017647812513425242 0 0.00095259313624193771 -0.017639414359183835 0 0.00073466438334940495 -0.017393522481559755 0 0.00050685828749846395 -0.018111791341714763 0 0.0004852459444664028 -0.017647812513425242 0 0.00095259313624193771 -0.017639414359183835 0 -2.9365247542281711e-07 -0.028131581707903031 0 -8.9692324327236903e-07 -0.022992303264068422 0 -0.00024102492999713968 -0.025860877195606414 0 0.00095018078335590425 -0.023733565697680679 0 6.4931363654574165e-05 -0.023124795791514517 0 -0.00090181939165297274 -0.02587696435992555 0 0.00093223582402722732 -0.02558261548405651 0 0.00041600542113581676 -0.027300831854954834 0 0.001871630204590936 -0.027266291441745808 0 0.0012524887859673617 -0.027906769990521517 0 0.00090946891275248826 -0.026730291280320787 0 0.001871630204590936 -0.027266291441745808 0 0.0012524887859673617 -0.027906769990521517 0 0.0017323702739361528 -0.028792561389639312 0 0.00067578211493005635 -0.02774205096525