<?xml version="1.0"?>
<VTKFile type="UnstructuredGrid" version="0.1" byte_order="LittleEndian">
<UnstructuredGrid>
<Piece NumberOfPoints="30045" NumberOfCells="10572">
<Points>
<DataArray type="Float64" NumberOfComponents="3" format="ascii">
-0.5 -0.5 0 -0.4634671666352253 -0.44982838100205952 0 -0.43135881676793209 -0.5 0 -0.5 -0.5 0 -0.4634671666352253 -0.44982838100205952 0 -0.5 -0.41236866247181359 0 -0.4634671666352253 -0.44982838100205952 0 -0.44845164944057869 -0.42843387413040129 0 -0.42787214779242039 -0.45397278142230552 0 -0.4634671666352253 -0.44982838100205952 0 -0.43135881676793209 -0.5 0 -0.42787214779242039 -0.45397278142230552 0 -0.5 -0.41236866247181359 0 -0.5 -0.34619889210400012 0 -0.46830564138245429 -0.37405977383715833 0 -0.4634671666352253 -0.44982838100205952 0 -0.5 -0.41236866247181359 0 -0.46866313715475583 -0.40195023975172128 0 -0.5 -0.41236866247181359 0 -0.46866313715475583 -0.40195023975172128 0 -0.46830564138245429 -0.37405977383715833 0 -0.45014442940217447 -0.4013185625992165 0 -0.44237042933033438 -0.38196934837481322 0 -0.46830564138245429 -0.37405977383715833 0 -0.46866313715475583 -0.40195023975172128 0 -0.45014442940217447 -0.4013185625992165 0 -0.46830564138245429 -0.37405977383715833 0 -0.45014442940217447 -0.4013185625992165 0 -0.43877358317869503 -0.39495758247990898 0 -0.44237042933033438 -0.38196934837481322 0 -0.45014442940217447 -0.4013185625992165 0 -0.43877358317869503 -0.39495758247990898 0 -0.43574731497708252 -0.40461316207953718 0 -0.4634671666352253 -0.44982838100205952 0 -0.46866313715475583 -0.40195023975172128 0 -0.44845164944057869 -0.42843387413040129 0 -0.46866313715475583 -0.40195023975172128 0 -0.45014442940217447 -0.4013185625992165 0 -0.44845164944057869 -0.42843387413040129 0 -0.45014442940217447 -0.4013185625992165 0 -0.44845164944057869 -0.42843387413040129 0 -0.43527036971826921 -0.41432199580611179 0 -0.45014442940217447 -0.4013185625992165 0 -0.43527036971826921 -0.41432199580611179 0 -0.43574731497708252 -0.40461316207953718 0 -0.44845164944057869 -0.42843387413040129 0 -0.42269405879196881 -0.4299652991457677 0 -0.42787214779242039 -0.45397278142230552 0 -0.44845164944057869 -0.42843387413040129 0 -0.42269405879196881 -0.4299652991457677 0 -0.43527036971826921 -0.41432199580611179 0 -0.43272409345465118 -0.40649143991083281 0 -0.4218606722431596 -0.41510963697091602 0 -0.41535231610346118 -0.40340386211647927 0 -0.42269405879196881 -0.4299652991457677 0 -0.43527036971826921 -0.41432199580611179 0 -0.4218606722431596 -0.41510963697091602 0 -0.43527036971826921 -0.41432199580611179 0 -0.43272409345465118 -0.40649143991083281 0 -0.43574731497708252 -0.40461316207953718 0 -0.43527036971826921 -0.41432199580611179 0 -0.43272409345465118 -0.40649143991083281 0 -0.4218606722431596 -0.41510963697091602 0 -0.4218606722431596 -0.41510963697091602 0 -0.41535231610346118 -0.40340386211647927 0 -0.39694450630356382 -0.41800748927566189 0 -0.42269405879196881 -0.4299652991457677 0 -0.4218606722431596 -0.41510963697091602 0 -0.39694450630356382 -0.41800748927566189 0 -0.42269405879196881 -0.4299652991457677 0 -0.39694450630356382 -0.41800748927566189 0 -0.40140307788713869 -0.44345915097682193 0 -0.42953637925293531 -0.3789970899339139 0 -0.42622966209021679 -0.39477444302758252 0 -0.41869962375579017 -0.38699038822924992 0 -0.43877358317869503 -0.39495758247990898 0 -0.44237042933033438 -0.38196934837481322 0 -0.42622966209021679 -0.39477444302758252 0 -0.44237042933033438 -0.38196934837481322 0 -0.42622966209021679 -0.39477444302758252 0 -0.44237042933033438 -0.38196934837481322 0 -0.42953637925293531 -0.3789970899339139 0 -0.42622966209021679 -0.39477444302758252 0 -0.44237042933033438 -0.38196934837481322 0 -0.42953637925293531 -0.3789970899339139 0 -0.43845461566448929 -0.36632022719094198 0 -0.42953637925293531 -0.3789970899339139 0 -0.41869962375579017 -0.38699038822924992 0 -0.42300441447708698 -0.36755678409028453 0 -0.43272409345465118 -0.40649143991083281 0 -0.42622966209021679 -0.39477444302758252 0 -0.41535231610346118 -0.40340386211647927 0 -0.43272409345465118 -0.40649143991083281 0 -0.41535231610346118 -0.40340386211647927 0 -0.42622966209021679 -0.39477444302758252 0 -0.41869962375579017 -0.38699038822924992 0 -0.43877358317869503 -0.39495758247990898 0 -0.42622966209021679 -0.39477444302758252 0 -0.43574731497708252 -0.40461316207953718 0 -0.43272409345465118 -0.40649143991083281 0 -0.42622966209021679 -0.39477444302758252 0 -0.43574731497708252 -0.40461316207953718 0 -0.42622966209021679 -0.39477444302758252 0 -0.43574731497708252 -0.40461316207953718 0 -0.42622966209021679 -0.39477444302758252 0 -0.41535231610346118 -0.40340386211647927 0 -0.41535231610346118 -0.40340386211647927 0 -0.41391400598243439 -0.39127880851499391 0 -0.40298414627967288 -0.3878129695567461 0 -0.42622966209021679 -0.39477444302758252 0 -0.41391400598243439 -0.39127880851499391 0 -0.41869962375579017 -0.38699038822924992 0 -0.42622966209021679 -0.39477444302758252 0 -0.41535231610346118 -0.40340386211647927 0 -0.41391400598243439 -0.39127880851499391 0 -0.41869962375579017 -0.38699038822924992 0 -0.41221174667866239 -0.36592784423694852 0 -0.41869962375579017 -0.38699038822924992 0 -0.4110898994563868 -0.37912395935916782 0 -0.41221174667866239 -0.36592784423694852 0 -0.41869962375579017 -0.38699038822924992 0 -0.4110898994563868 -0.37912395935916782 0 -0.41391400598243439 -0.39127880851499391 0 -0.41869962375579017 -0.38699038822924992 0 -0.4110898994563868 -0.37912395935916782 0 -0.41391400598243439 -0.39127880851499391 0 -0.4110898994563868 -0.37912395935916782 0 -0.40298414627967288 -0.3878129695567461 0 -0.3928313723333472 -0.38163856157133952 0 -0.40298414627967288 -0.3878129695567461 0 -0.39549940799503103 -0.39987529984045461 0 -0.3928313723333472 -0.38163856157133952 0 -0.39891048992789918 -0.37682849517642669 0 -0.40298414627967288 -0.3878129695567461 0 -0.3928313723333472 -0.38163856157133952 0 -0.39891048992789918 -0.37682849517642669 0 -0.39169689474753228 -0.37209350970412708 0 -0.4110898994563868 -0.37912395935916782 0 -0.39891048992789918 -0.37682849517642669 0 -0.40298414627967288 -0.3878129695567461 0 -0.41535231610346118 -0.40340386211647927 0 -0.39549940799503103 -0.39987529984045461 0 -0.41535231610346118 -0.40340386211647927 0 -0.40298414627967288 -0.3878129695567461 0 -0.39549940799503103 -0.39987529984045461 0 -0.39549940799503103 -0.39987529984045461 0 -0.37564649988660093 -0.3963467375644294 0 -0.39549940799503103 -0.39987529984045461 0 -0.37564649988660093 -0.3963467375644294 0 -0.37902612999574631 -0.41432474878288822 0 -0.39549940799503103 -0.39987529984045461 0 -0.37564649988660093 -0.3963467375644294 0 -0.37960362824264998 -0.38357680640087449 0 -0.3928313723333472 -0.38163856157133952 0 -0.39549940799503103 -0.39987529984045461 0 -0.37960362824264998 -0.38357680640087449 0 -0.37960362824264998 -0.38357680640087449 0 -0.38222327521494581 -0.37046698350013652 0 -0.36753041268072872 -0.37730783582517319 0 -0.3928313723333472 -0.38163856157133952 0 -0.37960362824264998 -0.38357680640087449 0 -0.38222327521494581 -0.37046698350013652 0 -0.39694450630356382 -0.41800748927566189 0 -0.37853669650366678 -0.43261111643484501 0 -0.40140307788713869 -0.44345915097682193 0 -0.41535231610346118 -0.40340386211647927 0 -0.39694450630356382 -0.41800748927566189 0 -0.41535231610346118 -0.40340386211647927 0 -0.39549940799503103 -0.39987529984045461 0 -0.39694450630356382 -0.41800748927566189 0 -0.39694450630356382 -0.41800748927566189 0 -0.37902612999574631 -0.41432474878288822 0 -0.37853669650366678 -0.43261111643484501 0 -0.39549940799503103 -0.39987529984045461 0 -0.39694450630356382 -0.41800748927566189 0 -0.37902612999574631 -0.41432474878288822 0 -0.39694450630356382 -0.41800748927566189 0 -0.37853669650366678 -0.43261111643484501 0 -0.37853669650366678 -0.43261111643484501 0 -0.40140307788713869 -0.44345915097682193 0 -0.37756091119068341 -0.45547083511181269 0 -0.40140307788713869 -0.44345915097682193 0 -0.37756091119068341 -0.45547083511181269 0 -0.39985811723167958 -0.47214998327878283 0 -0.37756091119068341 -0.45547083511181269 0 -0.39985811723167958 -0.47214998327878283 0 -0.37451570269174711 -0.47737193454193311 0 -0.37979862866570641 -0.5 0 -0.39985811723167958 -0.47214998327878283 0 -0.37451570269174711 -0.47737193454193311 0 -0.37979862866570641 -0.5 0 -0.39985811723167958 -0.47214998327878283 0 -0.43135881676793209 -0.5 0 -0.39985811723167958 -0.47214998327878283 0 -0.43135881676793209 -0.5 0 -0.42787214779242039 -0.45397278142230552 0 -0.42269405879196881 -0.4299652991457677 0 -0.40140307788713869 -0.44345915097682193 0 -0.42787214779242039 -0.45397278142230552 0 -0.40140307788713869 -0.44345915097682193 0 -0.39985811723167958 -0.47214998327878283 0 -0.42787214779242039 -0.45397278142230552 0 -0.5 -0.29624040081863412 0 -0.49999999999999872 -0.23003002556286931 0 -0.4827187744681663 -0.24337415047728311 0 -0.4481563234045024 -0.27006240030611189 0 -0.4319575720331516 -0.26179597195830667 0 -0.4441751168952755 -0.24878028328113941 0 -0.4481563234045024 -0.27006240030611189 0 -0.46543754893633432 -0.2567182753916975 0 -0.4441751168952755 -0.24878028328113941 0 -0.4481563234045024 -0.27006240030611189 0 -0.43387500380453348 -0.28253257577139501 0 -0.4319575720331516 -0.26179597195830667 0 -0.4481563234045024 -0.27006240030611189 0 -0.47163858447348939 -0.27270757708508869 0 -0.46188027555844419 -0.29714265843171728 0 -0.4481563234045024 -0.27006240030611189 0 -0.46543754893633432 -0.2567182753916975 0 -0.47163858447348939 -0.27270757708508869 0 -0.4481563234045024 -0.27006240030611189 0 -0.46543754893633432 -0.2567182753916975 0 -0.47163858447348939 -0.27270757708508869 0 -0.5 -0.29624040081863412 0 -0.4827187744681663 -0.24337415047728311 0 -0.46543754893633432 -0.2567182753916975 0 -0.47163858447348939 -0.27270757708508869 0 -0.4827187744681663 -0.24337415047728311 0 -0.46543754893633432 -0.2567182753916975 0 -0.4827187744681663
[...]
<PointData Scalars="" Vectors="displacement," Tensors="">
<DataArray type="Float64" Name="displacement" NumberOfComponents="3" format="ascii">
-0.034997736897863875 -0.034997206577927223 0 -0.032994576614229693 -0.03403620039598345 0 -0.03499683305425879 -0.030199204994107786 0 -0.034997736897863875 -0.034997206577927223 0 -0.032994576614229693 -0.03403620039598345 0 -0.028872089583742454 -0.034996472936950636 0 -0.032994576614229693 -0.03403620039598345 0 -0.032573141704533404 -0.034144720792877614 0 -0.033844885395208996 -0.031771209137173087 0 -0.032994576614229693 -0.03403620039598345 0 -0.03499683305425879 -0.030199204994107786 0 -0.033844885395208996 -0.031771209137173087 0 -0.028872089583742454 -0.034996472936950636 0 -0.024234426220144233 -0.034998966888982234 0 -0.027369696039608055 -0.035417625178527701 0 -0.032994576614229693 -0.03403620039598345 0 -0.028872089583742454 -0.034996472936950636 0 -0.029780783281087641 -0.035033146267686437 0 -0.028872089583742454 -0.034996472936950636 0 -0.029780783281087641 -0.035033146267686437 0 -0.027369696039608055 -0.035417625178527701 0 -0.030829812828905456 -0.035145701902952395 0 -0.028777125706924069 -0.036465300630305945 0 -0.027369696039608055 -0.035417625178527701 0 -0.029780783281087641 -0.035033146267686437 0 -0.030829812828905456 -0.035145701902952395 0 -0.027369696039608055 -0.035417625178527701 0 -0.030829812828905456 -0.035145701902952395 0 -0.030520822797267366 -0.035811205435603517 0 -0.028777125706924069 -0.036465300630305945 0 -0.030829812828905456 -0.035145701902952395 0 -0.030520822797267366 -0.035811205435603517 0 -0.032276518034422344 -0.035041586835356062 0 -0.032994576614229693 -0.03403620039598345 0 -0.029780783281087641 -0.035033146267686437 0 -0.032573141704533404 -0.034144720792877614 0 -0.029780783281087641 -0.035033146267686437 0 -0.030829812828905456 -0.035145701902952395 0 -0.032573141704533404 -0.034144720792877614 0 -0.030829812828905456 -0.035145701902952395 0 -0.032573141704533404 -0.034144720792877614 0 -0.032747196113347136 -0.03426782357947851 0 -0.030829812828905456 -0.035145701902952395 0 -0.032747196113347136 -0.03426782357947851 0 -0.032276518034422344 -0.035041586835356062 0 -0.032573141704533404 -0.034144720792877614 0 -0.033636120925551245 -0.032400784911599464 0 -0.033844885395208996 -0.031771209137173087 0 -0.032573141704533404 -0.034144720792877614 0 -0.033636120925551245 -0.032400784911599464 0 -0.032747196113347136 -0.03426782357947851 0 -0.032633489358106393 -0.034569935193668036 0 -0.03369814823129845 -0.032838636648675291 0 -0.034801234669955966 -0.032243885713903284 0 -0.033636120925551245 -0.032400784911599464 0 -0.032747196113347136 -0.03426782357947851 0 -0.03369814823129845 -0.032838636648675291 0 -0.032747196113347136 -0.03426782357947851 0 -0.032633489358106393 -0.034569935193668036 0 -0.032276518034422344 -0.035041586835356062 0 -0.032747196113347136 -0.03426782357947851 0 -0.032633489358106393 -0.034569935193668036 0 -0.03369814823129845 -0.032838636648675291 0 -0.03369814823129845 -0.032838636648675291 0 -0.034801234669955966 -0.032243885713903284 0 -0.035116289205093278 -0.030093761343605779 0 -0.033636120925551245 -0.032400784911599464 0 -0.03369814823129845 -0.032838636648675291 0 -0.035116289205093278 -0.030093761343605779 0 -0.033636120925551245 -0.032400784911599464 0 -0.035116289205093278 -0.030093761343605779 0 -0.034450848103705821 -0.029914980410815948 0 -0.02844380071987597 -0.038171861429593147 0 -0.03065849840725127 -0.038462628705239803 0 -0.029574696293406717 -0.039470187617623928 0 -0.030520822797267366 -0.035811205435603517 0 -0.028777125706924069 -0.036465300630305945 0 -0.030601191548922574 -0.037044042387585838 0 -0.029077541266018435 -0.037040185545787835 0 -0.031866731500804185 -0.034977795911741737 0 -0.028777125706924069 -0.036465300630305945 0 -0.02844380071987597 -0.038171861429593147 0 -0.03065849840725127 -0.038462628705239803 0 -0.028777125706924069 -0.036465300630305945 0 -0.02844380071987597 -0.038171861429593147 0 -0.026874908229010751 -0.037434385876618431 0 -0.02844380071987597 -0.038171861429593147 0 -0.029574696293406717 -0.039470187617623928 0 -0.027021311687507828 -0.03898629495801597 0 -0.032633489358106393 -0.034569935193668036 0 -0.033351193376401696 -0.034160473167302509 0 -0.032820758179279985 -0.033459541772536058 0 -0.032820275006110101 -0.035115188732018507 0 -0.034252576731390254 -0.030312778246149755 0 -0.031866731500804185 -0.034977795911741737 0 -0.030796685006595666 -0.033117956068555804 0 -0.030520822797267366 -0.035811205435603517 0 -0.030601191548922574 -0.037044042387585838 0 -0.032276518034422344 -0.035041586835356062 0 -0.032633489358106393 -0.034569935193668036 0 -0.033351193376401696 -0.034160473167302509 0 -0.032276518034422344 -0.035041586835356062 0 -0.031866731500804185 -0.034977795911741737 0 -0.032126023720498623 -0.035185385946803927 0 -0.031866731500804185 -0.034977795911741737 0 -0.034252576731390254 -0.030312778246149755 0 -0.03318906041042094 -0.028044025785584556 0 -0.034263836203976855 -0.027914097672325024 0 -0.034649383152146676 -0.026879947473933508 0 -0.033831746483147289 -0.029242010468840646 0 -0.034263836203976855 -0.027914097672325024 0 -0.034623311307137576 -0.028424721286730389 0 -0.033831746483147289 -0.029242010468840646 0 -0.03318906041042094 -0.028044025785584556 0 -0.034263836203976855 -0.027914097672325024 0 -0.030796685006595666 -0.033117956068555804 0 -0.027912113159670009 -0.033303160317252951 0 -0.029098486278805898 -0.03152804358449874 0 -0.030241265603027548 -0.03039893233628534 0 -0.032162339243975525 -0.03055761586058478 0 -0.030796685006595666 -0.033117956068555804 0 -0.033060640660368464 -0.029265235998575695 0 -0.034263836203976855 -0.027914097672325024 0 -0.034623311307137576 -0.028424721286730389 0 -0.035298453189686517 -0.027533969641584773 0 -0.034263836203976855 -0.027914097672325024 0 -0.035298453189686517 -0.027533969641584773 0 -0.034649383152146676 -0.026879947473933508 0 -0.035075296607266458 -0.026134157759201106 0 -0.034649383152146676 -0.026879947473933508 0 -0.033895084957751197 -0.026251645640290325 0 -0.035075296607266458 -0.026134157759201106 0 -0.035365575059481312 -0.026577913687933215 0 -0.034649383152146676 -0.026879947473933508 0 -0.035075296607266458 -0.026134157759201106 0 -0.035365575059481312 -0.026577913687933215 0 -0.03559485811617883 -0.026073871707546183 0 -0.035298453189686517 -0.027533969641584773 0 -0.035365575059481312 -0.026577913687933215 0 -0.034649383152146676 -0.026879947473933508 0 -0.034252576731390254 -0.030312778246149755 0 -0.035310042568548063 -0.026482143029542687 0 -0.03318906041042094 -0.028044025785584556 0 -0.034649383152146676 -0.026879947473933508 0 -0.033895084957751197 -0.026251645640290325 0 -0.035310042568548063 -0.026482143029542687 0 -0.035673206898264122 -0.026090813609581324 0 -0.036532230050510511 -0.027496542913434768 0 -0.036623289374172821 -0.026674402472847338 0 -0.036096359221518909 -0.02700768418995763 0 -0.033895084957751197 -0.026251645640290325 0 -0.034824295839513672 -0.025122674417404327 0 -0.035021529638558029 -0.025287941796968055 0 -0.035075296607266458 -0.026134157759201106 0 -0.033895084957751197 -0.026251645640290325 0 -0.035021529638558029 -0.025287941796968055 0 -0.035021529638558029 -0.025287941796968055 0 -0.035606913745157509 -0.025496540755219399 0 -0.03501791085742182 -0.024791781932659102 0 -0.035075296607266458 -0.026134157759201106 0 -0.035021529638558029 -0.025287941796968055 0 -0.035606913745157509 -0.025496540755219399 0 -0.035116289205093278 -0.030093761343605779 0 -0.035559908597016701 -0.027472292690634711 0 -0.034450848103705821 -0.029914980410815948 0 -0.034252576731390254 -0.030312778246149755 0 -0.03566390722972701 -0.0287786264228026 0 -0.036405688222316511 -0.028158430046476963 0 -0.036532230050510511 -0.027496542913434768 0 -0.035971789969657261 -0.02756303854959568 0 -0.035971789969657261 -0.02756303854959568 0 -0.036096359221518909 -0.02700768418995763 0 -0.035559908597016701 -0.027472292690634711 0 -0.036532230050510511 -0.027496542913434768 0 -0.035971789969657261 -0.02756303854959568 0 -0.036096359221518909 -0.02700768418995763 0 -0.03566390722972701 -0.0287786264228026 0 -0.035327713629004873 -0.027509668351675117 0 -0.035559908597016701 -0.027472292690634711 0 -0.034450848103705821 -0.029914980410815948 0 -0.035010453654466825 -0.027369857812565762 0 -0.034450848103705821 -0.029914980410815948 0 -0.035010453654466825 -0.027369857812565762 0 -0.034599319865068187 -0.028966482532828443 0 -0.035010453654466825 -0.027369857812565762 0 -0.034599319865068187 -0.028966482532828443 0 -0.03496710255035141 -0.026764170322690121 0 -0.034998408983906194 -0.026586876776762157 0 -0.034599319865068187 -0.028966482532828443 0 -0.03496710255035141 -0.026764170322690121 0 -0.034998408983906194 -0.026586876776762157 0 -0.034599319865068187 -0.028966482532828443 0 -0.03499683305425879 -0.030199204994107786 0 -0.034599319865068187 -0.028966482532828443 0 -0.03499683305425879 -0.030199204994107786 0 -0.033844885395208996 -0.031771209137173087 0 -0.033636120925551245 -0.032400784911599464 0 -0.034450848103705821 -0.029914980410815948 0 -0.033844885395208996 -0.031771209137173087 0 -0.034450848103705821 -0.029914980410815948 0 -0.034599319865068187 -0.028966482532828443 0 -0.033844885395208996 -0.031771209137173087 0 -0.020737205329948157 -0.034999338081462904 0 -0.016102597269312183 -0.034999887812005304 0 -0.017154046862702402 -0.036017070181566017 0 -0.019010547411023197 -0.037826232245570558 0 -0.018426236446485632 -0.038809363324273656 0 -0.017472320191094699 -0.038100483113795602 0 -0.019010547411023197 -0.037826232245570558 0 -0.017922269760074511 -0.036807524026789468 0 -0.017472320191094699 -0.038100483113795602 0 -0.019010547411023197 -0.037826232245570558 0 -0.019901935780324977 -0.03865389007981291 0 -0.018426236446485632 -0.038809363324273656 0 -0.019010547411023197 -0.037826232245570558 0 -0.01921358623265788 -0.036536621731590835 0 -0.020937585800815655 -0.036920045674664927 0 -0.019010547411023197 -0.037826232245570558 0 -0.018167189950573114 -0.036946803600228922 0 -0.01921358623265788 -0.036536621731590835 0 -0.018915417855524693 -0.037774825107350612 0 -0.018058386268024394 -0.036897848853524109 0 -0.01921358623265788 -0.036536621731590835 0 -0.020737205329948157 -0.034999338081462904 0 -0.017154046862702402 -0.036017070181566017 0 -0.018167189950573114 -0.036946803600228922 0 -0.01921358623265788 -0.036536621731590835 0 -0.017154046862702402 -0.036017070181566017 0 -0.018058386268024394 -0.036897848853524109 0 -0.017052605976003103 -0.035944408838493126 0 -0.01921358623265788 -0.036536621731590835 0 -0.020737205329948157 -0.034999338081462904 0 -0.020937585800815655 -0.036920045674664927 0 -0.020737205329948157 -0.034999338081462904 0 -0.020937585800815655 -0.036920045674664927 0 -0.022671805438376658 -0.035958021755298053 0 -0.020937585800815655 -0.036920045674664927 0 -0.021360371177626302 -0.038594458819848063 0 -0.019901935780324977 -0.03865389007981291 0 -0.019010547411023197 -0.037826232245570558 0 -0.020937585800815655 -0.036920045674664927 0 -0.019901935780324977 -0.03865389007981291 0 -0.020937585800815655 -0.036920045674664927 0 -0.023179875196686652 -0.037468212860386131 0 -0.021360371177626302 -0.038594458819848063 0 -0.023179875196686652 -0.037468212860386131 0 -0.025371537661183011 -0.036978136228566938 0 -0.025057108650344936 -0.039311682025357841 0 -0.023179875196686652 -0.037468212860386131 0 -0.02449767346281732 -0.035960087174398865 0 -0.025371537661183011 -0.036978136228566938 0 -0.023179875196686652 -0.037468212860386131 0 -0.022671805438376658 -0.035958021755298053 0 -0.02449767346281732 -0.035960087174398865 0 -0.020937585800815655 -0.036920045674664927 0 -0.023179875196686652 -0.037468212860386131 0 -0.022671805438376658 -0.035958021755298053 0 -0.020737205329948157 -0.034999338081462904 0 -0.022671805438376658 -0.035958021755298053 0 -0.024234426220144233 -0.034998966888982234 0 -0.022671805438376658 -0.035958021755298053 0 -0.02449767346281732 -0.035960087174398865 0 -0.024234426220144233 -0.034998966888982234 0 -0.02449767346281732 -0.035960087174398865 0 -0.024234426220144233 -0.034998966888982234 0 -0.027369696039608055 -0.035417625178527701 0 -0.02449767346281732 -0.035960087174398865 0 -0.027369696039608055 -0.035417625178527701 0 -0.025371537661183011 -0.036978136228566938 0 -0.028777125706924069 -0.036465300630305945 0 -0.027369696039608055 -0.035417625178527701 0 -0.026874908229010751 -0.037434385876618431 0 -0.027369696039608055 -0.035417625178527701 0 -0.025371537661183011 -0.036978136228566938 0 -0.026874908229010751 -0.037434385876618431 0 -0.026874908229010751 -0.037434385876618431 0 -0.027021311687507828 -0.03898629495801597 0 -0.025057108650344936 -0.039311682025357841 0 -0.02844380071987597 -0.038171861429593147 0 -0.026874908229010751 -0.037434385876618431 0 -0.027021311687507828 -0.03898629495801597 0 -0.025371537661183011 -0.036978136228566938 0 -0.026874908229010751 -0.037434385876618431 0 -0.025057108650344936 -0.039311682025357841 0 -0.025057108650344936 -0.039311682025357841 0 -0.026801707018791036 -0.040038145945622688 0 -0.024186544217228163 -0.040739744809326593 0 -0.027912113159670009 -0.033303160317252951 0 -0.02570511827634531 -0.032447398641304394 0 -0.029574696293406717 -0.039470187617623928 0 -0.027021311687507828 -0.03898629495801597 0 -0.026823379164725901 -0.040330117388172673 0 -0.030241265603027548 -0.03039893233628534 0 -0.032162339243975525 -0.03055761586058478 0 -0.032526582257209523 -0.028131360094540526 0 -0.027021311687507828 -0.03898629495801597 0 -0.025057108650344936 -0.039311682025357841 0 -0.026801707018791036 -0.040038145945622688 0 -0.026837441332427141 -0.040237079407593641 0 -0.027912113159670009 -0.033303160317252951 0 -0.035298453189686517 -0.027533969641584773 0 -0.035365575059481312 -0.026577913687933215 0 -0.036125951876346075 -0.026321255200779246 0 -0.033060640660368464 -0.029265235998575695 0 -0.033015914705060739 -0.025152211085997307 0 -0.027912113159670009 -0.033303160317252951 0 -0.033015914705060739 -0.025152211085997307 0 -0.033015914705060739 -0.025152211085997307 0 -0.032269588156347805 -0.024653607006917926 0 -0.035365575059481312 -0.026577913687933215 0 -0.036125951876346075 -0.026321255200779246 0 -0.03559485811617883 -0.026073871707546183 0 -0.033015914705060739 -0.025152211085997307 0 -0.035648026145034109 -0.023356254586259888 0 -0.036125951876346075 -0.026321255200779246 0 -0.03559485811617883 -0.026073871707546183 0 -0.035606913745157509 -0.025496540755219399 0 -0.035075296607266458 -0.026134157759201106 0 -0.03559485811617883 -0.026073871707546183 0 -0.035606913745157509 -0.025496540755219399 0 -0.034470369144740345 -0.022830485862070201 0 -0.034542477574644216 -0.02276718100389992 0 -0.03465211300172763 -0.022160324553918746 0 -0.036125951876346075 -0.026321255200779246 0 -0.035606913745157509 -0.025496540755219399 0 -0.036147086652767856 -0.024839935774562463 0 -0.034542477574644216 -0.02276718100389992 0 -0.03481594100695088 -0.0224901403033591 0 -0.03465211300172763 -0.022160324553918746 0 -0.031285187925070644 -0.023801650430778729 0 -0.031338925723837389 -0.023863227133113969 0 -0.03490499993212412 -0.022381131171769205 0 -0.03481594100695088 -0.0224901403033591 0 -0.03465211300172763 -0.022160324553918746 0 -0.032269588156347805 -0.024653607006917926 0 -0.031338925723837389 -0.023863227133113969 0 -0.028099208942319018 -0.024383011436662015 0 -0.028053731716843194 -0.024717858324421572 0 -0.027374585605827579 -0.024462960622676583 0 -0.028053731716843194 -0.024717858324421572 0 -0.027996682329373804 -0.024764351061237332 0 -0.027374585605827579 -0.024462960622676583 0 -0.027996682329373804 -0.024764351061237332 0 -0.02775826844221967 -0.024986560741268489 0 -0.027374585605827579 -0.024462960622676583 0 -0.02775826844221967 -0.024986560741268489 0 -0.027374585605827579 -0.024462960622676583 0 -0.027117068731573428 -0.024956975543859939 0 -0.027652787512811861 -0.025085736908335935 0 -0.02775826844221967 -0.024986560741268489 0 -0.027117068731573428 -0.024956975543859939 0 -0.027652787512811861 -0.025085736908335935 0 -0.027117068731573428 -0.024956975543859939 0 -0.027172799190593767 -0.025610128247911378 0 -0.027117068731573428 -0.024956975543859939 0 -0.026356405599647942 -0.024530262652569957 0 -0.026290015496508695 -0.025357550210872531 0 -0.027374585605827579 -0.024462960622676583 0 -0.027117068731573428 -0.024956975543859939 0 -0.026356405599647942 -0.024530262652569957 0 -0.024186544217228163 -0.040739744809326593 0 -0.022746054191145015 -0.039520686482422795 0 -0.021980319479201663 -0.041266768931417959 0 -0.02570511827634531 -0.032447398641304394 0 -0.024178997234280054 -0.03291909071631214 0 -0.025057108650344936 -0.039311682025357841 0 -0.024186544217228163 -0.040739744809326593 0 -0.022746054191145015 -0.039520686482422795 0 -0.023179875196686652 -0.037468212860386131 0 -0.025057108650344936 -0.039311682025357841 0 -0.022746054191145015 -0.039520686482422795 0 -0.023179875196686652 -0.037468212860386131 0 -0.022746054191145015 -0.039520686482422795 0 -0.021360371177626302 -0.038594458819848063 0 -0.022746054191145015 -0.039520686482422795 0 -0.021360371177626302 -0.038594458819848063 0 -0.020769297131717164 -0.039956701181300111 0 -0.021360371177626302 -0.038594458819848063 0 -0.019901935780324977 -0.03865389007981291 0 -0.020769297131717164 -0.039956701181300111 0 -0.019901935780324977 -0.03865389007981291 0 -0.020769297131717164 -0.039956701181300111 0 -0.018959689986137538 -0.039882189807380744 0 -0.022746054191145015 -0.039520686482422795 0 -0.020769297131717164 -0.039956701181300111 0 -0.021980319479201663 -0.041266768931417959 0 -0.026356405599647942 -0.024530262652569957 0 -0.024974385189074862 -0.024694609404098629 0 -0.026290015496508695 -0.025357550210872531 0 -0.024178997234280054 -0.03291909071631214 0 -0.022458594853320298 -0.033194871140659631 0 -0.020769297131717164 -0.039956701181300111 0 -0.021980319479201663 -0.041266768931417959 0 -0.019987521791485965 -0.041700801268065392 0 -0.020769297131717164 -0.039956701181300111 0 -0.019987521791485965 -0.041700801268065392 0 -0.018959689986137538 -0.039882189807380744 0 -0.019987521791485965 -0.041700801268065392 0 -0.017814859129951902 -0.040719688724031471 0 -0.018959689986137538 -0.039882189807380744 0 -0.022458594853320298 -0.033194871140659631 0 -0.020767063627527178 -0.033613703436252043 0 -0.019987521791485965 -0.041700801268065392 0 -0.018146237818651354 -0.042098633897043033 0 -0.017814859129951902 -0.040719688724031471 0 -0.017814859129951902 -0.040719688724031471 0 -0.018959689986137538 -0.039882189807380744 0 -0.016950427808938025 -0.039473692879231574 0 -0.019901935780324977 -0.03865389007981291 0 -0.018959689986137538 -0.039882189807380744 0 -0.018426236446485632 -0.038809363324273656 0 -0.018426236446485632 -0.038809363324273656 0 -0.016950427808938025 -0.039473692879231574 0 -0.017472320191094699 -0.038100483113795602 0 -0.018959689986137538 -0.039882189807380744 0 -0.018426236446485632 -0.038809363324273656 0 -0.016950427808938025 -0.039473692879231574 0 -0.021540327786118266 -0.020831358041496984 0 -0.021817390475551288 -0.020962385097943473 0 -0.021339860091151942 -0.021140423839944095 0 -0.021817390475551288 -0.020962385097943473 0 -0.022122255402966695 -0.020721098528409969 0 -0.022322859884948382 -0.020857322578376133 0 -0.030204408413908822 -0.021517027806578853 0 -0.027669813653155167 -0.019774862548329563 0 -0.021540327786118266 -0.020831358041496984 0 -0.021817390475551288 -0.020962385097943473 0 -0.022122255402966695 -0.020721098528409969 0 -0.021817390475551288 -0.020962385097943473 0 -0.022322859884948382 -0.020857322578376133 0 -0.021724367984379857 -0.021219587443842898 0 -0.019136944502714432 -0.021436727736533372 0 -0.022500860746494832 -0.022803405830082588 0 -0.022500860746494832 -0.022803405