<?xml version="1.0"?>
<VTKFile type="UnstructuredGrid" version="0.1" byte_order="LittleEndian">
<UnstructuredGrid>
<Piece NumberOfPoints="30045" NumberOfCells="10572">
<Points>
<DataArray type="Float64" NumberOfComponents="3" format="ascii">
-0.5 -0.5 0 -0.4634671666352253 -0.44982838100205952 0 -0.43135881676793209 -0.5 0 -0.5 -0.5 0 -0.4634671666352253 -0.44982838100205952 0 -0.5 -0.41236866247181359 0 -0.4634671666352253 -0.44982838100205952 0 -0.44845164944057869 -0.42843387413040129 0 -0.42787214779242039 -0.45397278142230552 0 -0.4634671666352253 -0.44982838100205952 0 -0.43135881676793209 -0.5 0 -0.42787214779242039 -0.45397278142230552 0 -0.5 -0.41236866247181359 0 -0.5 -0.34619889210400012 0 -0.46830564138245429 -0.37405977383715833 0 -0.4634671666352253 -0.44982838100205952 0 -0.5 -0.41236866247181359 0 -0.46866313715475583 -0.40195023975172128 0 -0.5 -0.41236866247181359 0 -0.46866313715475583 -0.40195023975172128 0 -0.46830564138245429 -0.37405977383715833 0 -0.45014442940217447 -0.4013185625992165 0 -0.44237042933033438 -0.38196934837481322 0 -0.46830564138245429 -0.37405977383715833 0 -0.46866313715475583 -0.40195023975172128 0 -0.45014442940217447 -0.4013185625992165 0 -0.46830564138245429 -0.37405977383715833 0 -0.45014442940217447 -0.4013185625992165 0 -0.43877358317869503 -0.39495758247990898 0 -0.44237042933033438 -0.38196934837481322 0 -0.45014442940217447 -0.4013185625992165 0 -0.43877358317869503 -0.39495758247990898 0 -0.43574731497708252 -0.40461316207953718 0 -0.4634671666352253 -0.44982838100205952 0 -0.46866313715475583 -0.40195023975172128 0 -0.44845164944057869 -0.42843387413040129 0 -0.46866313715475583 -0.40195023975172128 0 -0.45014442940217447 -0.4013185625992165 0 -0.44845164944057869 -0.42843387413040129 0 -0.45014442940217447 -0.4013185625992165 0 -0.44845164944057869 -0.42843387413040129 0 -0.43527036971826921 -0.41432199580611179 0 -0.45014442940217447 -0.4013185625992165 0 -0.43527036971826921 -0.41432199580611179 0 -0.43574731497708252 -0.40461316207953718 0 -0.44845164944057869 -0.42843387413040129 0 -0.42269405879196881 -0.4299652991457677 0 -0.42787214779242039 -0.45397278142230552 0 -0.44845164944057869 -0.42843387413040129 0 -0.42269405879196881 -0.4299652991457677 0 -0.43527036971826921 -0.41432199580611179 0 -0.43272409345465118 -0.40649143991083281 0 -0.4218606722431596 -0.41510963697091602 0 -0.41535231610346118 -0.40340386211647927 0 -0.42269405879196881 -0.4299652991457677 0 -0.43527036971826921 -0.41432199580611179 0 -0.4218606722431596 -0.41510963697091602 0 -0.43527036971826921 -0.41432199580611179 0 -0.43272409345465118 -0.40649143991083281 0 -0.43574731497708252 -0.40461316207953718 0 -0.43527036971826921 -0.41432199580611179 0 -0.43272409345465118 -0.40649143991083281 0 -0.4218606722431596 -0.41510963697091602 0 -0.4218606722431596 -0.41510963697091602 0 -0.41535231610346118 -0.40340386211647927 0 -0.39694450630356382 -0.41800748927566189 0 -0.42269405879196881 -0.4299652991457677 0 -0.4218606722431596 -0.41510963697091602 0 -0.39694450630356382 -0.41800748927566189 0 -0.42269405879196881 -0.4299652991457677 0 -0.39694450630356382 -0.41800748927566189 0 -0.40140307788713869 -0.44345915097682193 0 -0.42953637925293531 -0.3789970899339139 0 -0.42622966209021679 -0.39477444302758252 0 -0.41869962375579017 -0.38699038822924992 0 -0.43877358317869503 -0.39495758247990898 0 -0.44237042933033438 -0.38196934837481322 0 -0.42622966209021679 -0.39477444302758252 0 -0.44237042933033438 -0.38196934837481322 0 -0.42622966209021679 -0.39477444302758252 0 -0.44237042933033438 -0.38196934837481322 0 -0.42953637925293531 -0.3789970899339139 0 -0.42622966209021679 -0.39477444302758252 0 -0.44237042933033438 -0.38196934837481322 0 -0.42953637925293531 -0.3789970899339139 0 -0.43845461566448929 -0.36632022719094198 0 -0.42953637925293531 -0.3789970899339139 0 -0.41869962375579017 -0.38699038822924992 0 -0.42300441447708698 -0.36755678409028453 0 -0.43272409345465118 -0.40649143991083281 0 -0.42622966209021679 -0.39477444302758252 0 -0.41535231610346118 -0.40340386211647927 0 -0.43272409345465118 -0.40649143991083281 0 -0.41535231610346118 -0.40340386211647927 0 -0.42622966209021679 -0.39477444302758252 0 -0.41869962375579017 -0.38699038822924992 0 -0.43877358317869503 -0.39495758247990898 0 -0.42622966209021679 -0.39477444302758252 0 -0.43574731497708252 -0.40461316207953718 0 -0.43272409345465118 -0.40649143991083281 0 -0.42622966209021679 -0.39477444302758252 0 -0.43574731497708252 -0.40461316207953718 0 -0.42622966209021679 -0.39477444302758252 0 -0.43574731497708252 -0.40461316207953718 0 -0.42622966209021679 -0.39477444302758252 0 -0.41535231610346118 -0.40340386211647927 0 -0.41535231610346118 -0.40340386211647927 0 -0.41391400598243439 -0.39127880851499391 0 -0.40298414627967288 -0.3878129695567461 0 -0.42622966209021679 -0.39477444302758252 0 -0.41391400598243439 -0.39127880851499391 0 -0.41869962375579017 -0.38699038822924992 0 -0.42622966209021679 -0.39477444302758252 0 -0.41535231610346118 -0.40340386211647927 0 -0.41391400598243439 -0.39127880851499391 0 -0.41869962375579017 -0.38699038822924992 0 -0.41221174667866239 -0.36592784423694852 0 -0.41869962375579017 -0.38699038822924992 0 -0.4110898994563868 -0.37912395935916782 0 -0.41221174667866239 -0.36592784423694852 0 -0.41869962375579017 -0.38699038822924992 0 -0.4110898994563868 -0.37912395935916782 0 -0.41391400598243439 -0.39127880851499391 0 -0.41869962375579017 -0.38699038822924992 0 -0.4110898994563868 -0.37912395935916782 0 -0.41391400598243439 -0.39127880851499391 0 -0.4110898994563868 -0.37912395935916782 0 -0.40298414627967288 -0.3878129695567461 0 -0.3928313723333472 -0.38163856157133952 0 -0.40298414627967288 -0.3878129695567461 0 -0.39549940799503103 -0.39987529984045461 0 -0.3928313723333472 -0.38163856157133952 0 -0.39891048992789918 -0.37682849517642669 0 -0.40298414627967288 -0.3878129695567461 0 -0.3928313723333472 -0.38163856157133952 0 -0.39891048992789918 -0.37682849517642669 0 -0.39169689474753228 -0.37209350970412708 0 -0.4110898994563868 -0.37912395935916782 0 -0.39891048992789918 -0.37682849517642669 0 -0.40298414627967288 -0.3878129695567461 0 -0.41535231610346118 -0.40340386211647927 0 -0.39549940799503103 -0.39987529984045461 0 -0.41535231610346118 -0.40340386211647927 0 -0.40298414627967288 -0.3878129695567461 0 -0.39549940799503103 -0.39987529984045461 0 -0.39549940799503103 -0.39987529984045461 0 -0.37564649988660093 -0.3963467375644294 0 -0.39549940799503103 -0.39987529984045461 0 -0.37564649988660093 -0.3963467375644294 0 -0.37902612999574631 -0.41432474878288822 0 -0.39549940799503103 -0.39987529984045461 0 -0.37564649988660093 -0.3963467375644294 0 -0.37960362824264998 -0.38357680640087449 0 -0.3928313723333472 -0.38163856157133952 0 -0.39549940799503103 -0.39987529984045461 0 -0.37960362824264998 -0.38357680640087449 0 -0.37960362824264998 -0.38357680640087449 0 -0.38222327521494581 -0.37046698350013652 0 -0.36753041268072872 -0.37730783582517319 0 -0.3928313723333472 -0.38163856157133952 0 -0.37960362824264998 -0.38357680640087449 0 -0.38222327521494581 -0.37046698350013652 0 -0.39694450630356382 -0.41800748927566189 0 -0.37853669650366678 -0.43261111643484501 0 -0.40140307788713869 -0.44345915097682193 0 -0.41535231610346118 -0.40340386211647927 0 -0.39694450630356382 -0.41800748927566189 0 -0.41535231610346118 -0.40340386211647927 0 -0.39549940799503103 -0.39987529984045461 0 -0.39694450630356382 -0.41800748927566189 0 -0.39694450630356382 -0.41800748927566189 0 -0.37902612999574631 -0.41432474878288822 0 -0.37853669650366678 -0.43261111643484501 0 -0.39549940799503103 -0.39987529984045461 0 -0.39694450630356382 -0.41800748927566189 0 -0.37902612999574631 -0.41432474878288822 0 -0.39694450630356382 -0.41800748927566189 0 -0.37853669650366678 -0.43261111643484501 0 -0.37853669650366678 -0.43261111643484501 0 -0.40140307788713869 -0.44345915097682193 0 -0.37756091119068341 -0.45547083511181269 0 -0.40140307788713869 -0.44345915097682193 0 -0.37756091119068341 -0.45547083511181269 0 -0.39985811723167958 -0.47214998327878283 0 -0.37756091119068341 -0.45547083511181269 0 -0.39985811723167958 -0.47214998327878283 0 -0.37451570269174711 -0.47737193454193311 0 -0.37979862866570641 -0.5 0 -0.39985811723167958 -0.47214998327878283 0 -0.37451570269174711 -0.47737193454193311 0 -0.37979862866570641 -0.5 0 -0.39985811723167958 -0.47214998327878283 0 -0.43135881676793209 -0.5 0 -0.39985811723167958 -0.47214998327878283 0 -0.43135881676793209 -0.5 0 -0.42787214779242039 -0.45397278142230552 0 -0.42269405879196881 -0.4299652991457677 0 -0.40140307788713869 -0.44345915097682193 0 -0.42787214779242039 -0.45397278142230552 0 -0.40140307788713869 -0.44345915097682193 0 -0.39985811723167958 -0.47214998327878283 0 -0.42787214779242039 -0.45397278142230552 0 -0.5 -0.29624040081863412 0 -0.49999999999999872 -0.23003002556286931 0 -0.4827187744681663 -0.24337415047728311 0 -0.4481563234045024 -0.27006240030611189 0 -0.4319575720331516 -0.26179597195830667 0 -0.4441751168952755 -0.24878028328113941 0 -0.4481563234045024 -0.27006240030611189 0 -0.46543754893633432 -0.2567182753916975 0 -0.4441751168952755 -0.24878028328113941 0 -0.4481563234045024 -0.27006240030611189 0 -0.43387500380453348 -0.28253257577139501 0 -0.4319575720331516 -0.26179597195830667 0 -0.4481563234045024 -0.27006240030611189 0 -0.47163858447348939 -0.27270757708508869 0 -0.46188027555844419 -0.29714265843171728 0 -0.4481563234045024 -0.27006240030611189 0 -0.46543754893633432 -0.2567182753916975 0 -0.47163858447348939 -0.27270757708508869 0 -0.4481563234045024 -0.27006240030611189 0 -0.46543754893633432 -0.2567182753916975 0 -0.47163858447348939 -0.27270757708508869 0 -0.5 -0.29624040081863412 0 -0.4827187744681663 -0.24337415047728311 0 -0.46543754893633432 -0.2567182753916975 0 -0.47163858447348939 -0.27270757708508869 0 -0.4827187744681663 -0.24337415047728311 0 -0.46543754893633432 -0.2567182753916975 0 -0.4827187744681663
[...]
<PointData Scalars="" Vectors="displacement," Tensors="">
<DataArray type="Float64" Name="displacement" NumberOfComponents="3" format="ascii">
-3.1905002936101888e-07 -0.0349973683367715 0 -7.5345929836552323e-05 -0.031847693095374309 0 -6.2828643704978205e-07 -0.034996677334658041 0 -3.1905002936101888e-07 -0.0349973683367715 0 -7.5345929836552323e-05 -0.031847693095374309 0 1.0595119794092504e-06 -0.028866606624452888 0 -7.5345929836552323e-05 -0.031847693095374309 0 0.00024813247160149481 -0.030767453779117392 0 -0.00014058472383759175 -0.03295978431711958 0 -7.5345929836552323e-05 -0.031847693095374309 0 -6.2828643704978205e-07 -0.034996677334658041 0 -0.00014058472383759175 -0.03295978431711958 0 1.0595119794092504e-06 -0.028866606624452888 0 6.3588648154150054e-07 -0.024234227140723097 0 0.00055806028794656295 -0.026365854086631977 0 -7.5345929836552323e-05 -0.031847693095374309 0 1.0595119794092504e-06 -0.028866606624452888 0 0.00052102992592563879 -0.028381533699184478 0 1.0595119794092504e-06 -0.028866606624452888 0 0.00052102992592563879 -0.028381533699184478 0 0.00055806028794656295 -0.026365854086631977 0 0.00094201602606198737 -0.028577280401426573 0 0.0013762574362433957 -0.026633765743950242 0 0.00055806028794656295 -0.026365854086631977 0 0.00052102992592563879 -0.028381533699184478 0 0.00094201602606198737 -0.028577280401426573 0 0.00055806028794656295 -0.026365854086631977 0 0.00094201602606198737 -0.028577280401426573 0 0.0011678089839533949 -0.028423185619490046 0 0.0013762574362433957 -0.026633765743950242 0 0.00094201602606198737 -0.028577280401426573 0 0.0011678089839533949 -0.028423185619490046 0 0.001148573964623106 -0.029624289717644102 0 -7.5345929836552323e-05 -0.031847693095374309 0 0.00052102992592563879 -0.028381533699184478 0 0.00024813247160149481 -0.030767453779117392 0 0.00052102992592563879 -0.028381533699184478 0 0.00094201602606198737 -0.028577280401426573 0 0.00024813247160149481 -0.030767453779117392 0 0.00094201602606198737 -0.028577280401426573 0 0.00024813247160149481 -0.030767453779117392 0 0.00070852275474239071 -0.030511399053601524 0 0.00094201602606198737 -0.028577280401426573 0 0.00070852275474239071 -0.030511399053601524 0 0.001148573964623106 -0.029624289717644102 0 0.00024813247160149481 -0.030767453779117392 0 0.00026853914667501663 -0.032203382068296711 0 -0.00014058472383759175 -0.03295978431711958 0 0.00024813247160149481 -0.030767453779117392 0 0.00026853914667501663 -0.032203382068296711 0 0.00070852275474239071 -0.030511399053601524 0 0.0010678802860487435 -0.030307350826963661 0 0.00085176039463398783 -0.031834078750878771 0 0.0017887752809225943 -0.032332365579674185 0 0.00026853914667501663 -0.032203382068296711 0 0.00070852275474239071 -0.030511399053601524 0 0.00085176039463398783 -0.031834078750878771 0 0.00070852275474239071 -0.030511399053601524 0 0.0010678802860487435 -0.030307350826963661 0 0.001148573964623106 -0.029624289717644102 0 0.00070852275474239071 -0.030511399053601524 0 0.0010678802860487435 -0.030307350826963661 0 0.00085176039463398783 -0.031834078750878771 0 0.00085176039463398783 -0.031834078750878771 0 0.0017887752809225943 -0.032332365579674185 0 0.00085585390867058545 -0.033674341992906448 0 0.00026853914667501663 -0.032203382068296711 0 0.00085176039463398783 -0.031834078750878771 0 0.00085585390867058545 -0.033674341992906448 0 0.00026853914667501663 -0.032203382068296711 0 0.00085585390867058545 -0.033674341992906448 0 4.4229621157692149e-06 -0.033694688999672921 0 0.0014027532559295287 -0.024501056981401689 0 0.0033726486006129567 -0.024162339951185951 0 0.0023004559149848317 -0.02333043483146691 0 0.0011678089839533949 -0.028423185619490046 0 0.0013762574362433957 -0.026633765743950242 0 0.0012869313446751264 -0.029360747437517938 0 0.0020432311843092891 -0.026038728811075149 0 0.0011851088575048736 -0.029141203332207769 0 0.0013762574362433957 -0.026633765743950242 0 0.0014027532559295287 -0.024501056981401689 0 0.0033726486006129567 -0.024162339951185951 0 0.0013762574362433957 -0.026633765743950242 0 0.0014027532559295287 -0.024501056981401689 0 0.00056987221231695484 -0.024844989054109281 0 0.0014027532559295287 -0.024501056981401689 0 0.0023004559149848317 -0.02333043483146691 0 0.00072027144235196862 -0.023570119612958209 0 0.0010678802860487435 -0.030307350826963661 0 0.0029356320230716723 -0.03133684541661285 0 0.0015543198463980261 -0.033069154173547596 0 0.0011564979861323841 -0.030396232448254172 0 0.00059835903263538227 -0.033478592707642363 0 0.0011851088575048736 -0.029141203332207769 0 0.00055233486184928511 -0.028921775186408746 0 0.0011678089839533949 -0.028423185619490046 0 0.0012869313446751264 -0.029360747437517938 0 0.001148573964623106 -0.029624289717644102 0 0.0010678802860487435 -0.030307350826963661 0 0.0029356320230716723 -0.03133684541661285 0 0.001148573964623106 -0.029624289717644102 0 0.0011851088575048736 -0.029141203332207769 0 0.0016116740593694701 -0.029928331215011927 0 0.0011851088575048736 -0.029141203332207769 0 0.00059835903263538227 -0.033478592707642363 0 -0.00046525419574721988 -0.034014150006091183 0 -0.00037301495823022603 -0.034027793182657737 0 -0.00035155525597912996 -0.034128211993305041 0 -0.00039425741809076878 -0.03389312030523766 0 -0.00037301495823022603 -0.034027793182657737 0 -0.00033781205071923165 -0.033977857251726751 0 -0.00039425741809076878 -0.03389312030523766 0 -0.00046525419574721988 -0.034014150006091183 0 -0.00037301495823022603 -0.034027793182657737 0 0.00055233486184928511 -0.028921775186408746 0 0.00038043207428919903 -0.025086226507205357 0 -0.00010407655633357788 -0.02892100986045644 0 5.1998806701945884e-05 -0.029078250343243583 0 0.00031994659792181605 -0.029049130412264319 0 0.00055233486184928511 -0.028921775186408746 0 0.00027907500401001324 -0.031480162988069882 0 -0.00037301495823022603 -0.034027793182657737 0 -0.00033781205071923165 -0.033977857251726751 0 -0.00030009394701717461 -0.034068609064465474 0 -0.00037301495823022603 -0.034027793182657737 0 -0.00030009394701717461 -0.034068609064465474 0 -0.00035155525597912996 -0.034128211993305041 0 -0.00032887539478235672 -0.034195570833458089 0 -0.00035155525597912996 -0.034128211993305041 0 -0.00041036454569833236 -0.034183889160842515 0 -0.00032887539478235672 -0.034195570833458089 0 -0.00031446134087668651 -0.034160005691230566 0 -0.00035155525597912996 -0.034128211993305041 0 -0.00032887539478235672 -0.034195570833458089 0 -0.00031446134087668651 -0.034160005691230566 0 -0.00031799211608933515 -0.034203185914493991 0 -0.00030009394701717461 -0.034068609064465474 0 -0.00031446134087668651 -0.034160005691230566 0 -0.00035155525597912996 -0.034128211993305041 0 0.00059835903263538227 -0.033478592707642363 0 -0.00020079103671238223 -0.034547867071511952 0 -0.00046525419574721988 -0.034014150006091183 0 -0.00035155525597912996 -0.034128211993305041 0 -0.00041036454569833236 -0.034183889160842515 0 -0.00020079103671238223 -0.034547867071511952 0 -0.00016137776550026104 -0.034382801551667959 0 4.6965555087953604e-05 -0.034631570158196803 0 6.5877338413717093e-06 -0.034570187546750369 0 0.00011009584230338304 -0.034552747292098909 0 -0.00041036454569833236 -0.034183889160842515 0 -0.00032602259561996316 -0.034274814862581292 0 -0.00032401785238252807 -0.034252481551252947 0 -0.00032887539478235672 -0.034195570833458089 0 -0.00041036454569833236 -0.034183889160842515 0 -0.00032401785238252807 -0.034252481551252947 0 -0.00032401785238252807 -0.034252481551252947 0 -0.00033816265939160797 -0.034241011071472455 0 -0.00031863015712204034 -0.034260447495972429 0 -0.00032887539478235672 -0.034195570833458089 0 -0.00032401785238252807 -0.034252481551252947 0 -0.00033816265939160797 -0.034241011071472455 0 0.00085585390867058545 -0.033674341992906448 0 0.00024030767167373414 -0.034482392189990628 0 4.4229621157692149e-06 -0.033694688999672921 0 0.00059835903263538227 -0.033478592707642363 0 0.0005343694254666718 -0.034135604715949425 0 7.0160591109664315e-05 -0.034690555272977687 0 4.6965555087953604e-05 -0.034631570158196803 0 0.00012945390098493997 -0.034638293453570071 0 0.00012945390098493997 -0.034638293453570071 0 0.00011009584230338304 -0.034552747292098909 0 0.00024030767167373414 -0.034482392189990628 0 4.6965555087953604e-05 -0.034631570158196803 0 0.00012945390098493997 -0.034638293453570071 0 0.00011009584230338304 -0.034552747292098909 0 0.0005343694254666718 -0.034135604715949425 0 0.00024099254662166038 -0.034474099485687672 0 0.00024030767167373414 -0.034482392189990628 0 4.4229621157692149e-06 -0.033694688999672921 0 -5.3799974018536729e-05 -0.034525445995147543 0 4.4229621157692149e-06 -0.033694688999672921 0 -5.3799974018536729e-05 -0.034525445995147543 0 -0.0002128331298559645 -0.034309032113183743 0 -5.3799974018536729e-05 -0.034525445995147543 0 -0.0002128331298559645 -0.034309032113183743 0 -9.933689085536479e-05 -0.034740904329588609 0 -1.6986793861789228e-07 -0.034999748444474517 0 -0.0002128331298559645 -0.034309032113183743 0 -9.933689085536479e-05 -0.034740904329588609 0 -1.6986793861789228e-07 -0.034999748444474517 0 -0.0002128331298559645 -0.034309032113183743 0 -6.2828643704978205e-07 -0.034996677334658041 0 -0.0002128331298559645 -0.034309032113183743 0 -6.2828643704978205e-07 -0.034996677334658041 0 -0.00014058472383759175 -0.03295978431711958 0 0.00026853914667501663 -0.032203382068296711 0 4.4229621157692149e-06 -0.033694688999672921 0 -0.00014058472383759175 -0.03295978431711958 0 4.4229621157692149e-06 -0.033694688999672921 0 -0.0002128331298559645 -0.034309032113183743 0 -0.00014058472383759175 -0.03295978431711958 0 -2.1258689646528819e-06 -0.020736812669710291 0 1.7046654932249423e-06 -0.016106747273658902 0 -6.045440637114126e-05 -0.018274088828026024 0 -0.0010658419513910041 -0.019610269082165323 0 -0.0011602607884492646 -0.019186402146324083 0 -0.0010823614319587721 -0.018357595928630309 0 -0.0010658419513910041 -0.019610269082165323 0 -0.0013289770771266775 -0.017350717057870443 0 -0.0010823614319587721 -0.018357595928630309 0 -0.0010658419513910041 -0.019610269082165323 0 -0.00099208266738170332 -0.020119923895109103 0 -0.0011602607884492646 -0.019186402146324083 0 -0.0010658419513910041 -0.019610269082165323 0 -0.00045337229770111821 -0.02012295285074513 0 -0.00047035673137931362 -0.021299198491745948 0 -0.0010658419513910041 -0.019610269082165323 0 -0.00034921650055973164 -0.019804350554827422 0 -0.00045337229770111821 -0.02012295285074513 0 -0.0010148643121868316 -0.019367722060196303 0 -0.00079700222994753725 -0.018520395336203744 0 -0.00045337229770111821 -0.02012295285074513 0 -2.1258689646528819e-06 -0.020736812669710291 0 -6.045440637114126e-05 -0.018274088828026024 0 -0.00034921650055973164 -0.019804350554827422 0 -0.00045337229770111821 -0.02012295285074513 0 -6.045440637114126e-05 -0.018274088828026024 0 -0.00079700222994753725 -0.018520395336203744 0 -0.00044157494587494469 -0.017255085535530956 0 -0.00045337229770111821 -0.02012295285074513 0 -2.1258689646528819e-06 -0.020736812669710291 0 -0.00047035673137931362 -0.021299198491745948 0 -2.1258689646528819e-06 -0.020736812669710291 0 -0.00047035673137931362 -0.021299198491745948 0 -0.00020631875293719785 -0.022648027772989552 0 -0.00047035673137931362 -0.021299198491745948 0 -0.00071315484001330709 -0.021093445018915115 0 -0.00099208266738170332 -0.020119923895109103 0 -0.0010658419513910041 -0.019610269082165323 0 -0.00047035673137931362 -0.021299198491745948 0 -0.00099208266738170332 -0.020119923895109103 0 -0.00047035673137931362 -0.021299198491745948 0 -0.00033532627796216451 -0.022688407759399669 0 -0.00071315484001330709 -0.021093445018915115 0 -0.00033532627796216451 -0.022688407759399669 0 0.00015990047464623847 -0.024269846086846035 0 1.1140098373315475e-05 -0.022678960048032635 0 -0.00033532627796216451 -0.022688407759399669 0 2.0449613157292392e-05 -0.024122002072020345 0 0.00015990047464623847 -0.024269846086846035 0 -0.00033532627796216451 -0.022688407759399669 0 -0.00020631875293719785 -0.022648027772989552 0 2.0449613157292392e-05 -0.024122002072020345 0 -0.00047035673137931362 -0.021299198491745948 0 -0.00033532627796216451 -0.022688407759399669 0 -0.00020631875293719785 -0.022648027772989552 0 -2.1258689646528819e-06 -0.020736812669710291 0 -0.00020631875293719785 -0.022648027772989552 0 6.3588648154150054e-07 -0.024234227140723097 0 -0.00020631875293719785 -0.022648027772989552 0 2.0449613157292392e-05 -0.024122002072020345 0 6.3588648154150054e-07 -0.024234227140723097 0 2.0449613157292392e-05 -0.024122002072020345 0 6.3588648154150054e-07 -0.024234227140723097 0 0.00055806028794656295 -0.026365854086631977 0 2.0449613157292392e-05 -0.024122002072020345 0 0.00055806028794656295 -0.026365854086631977 0 0.00015990047464623847 -0.024269846086846035 0 0.0013762574362433957 -0.026633765743950242 0 0.00055806028794656295 -0.026365854086631977 0 0.00056987221231695484 -0.024844989054109281 0 0.00055806028794656295 -0.026365854086631977 0 0.00015990047464623847 -0.024269846086846035 0 0.00056987221231695484 -0.024844989054109281 0 0.00056987221231695484 -0.024844989054109281 0 0.00072027144235196862 -0.023570119612958209 0 1.1140098373315475e-05 -0.022678960048032635 0 0.0014027532559295287 -0.024501056981401689 0 0.00056987221231695484 -0.024844989054109281 0 0.00072027144235196862 -0.023570119612958209 0 0.00015990047464623847 -0.024269846086846035 0 0.00056987221231695484 -0.024844989054109281 0 1.1140098373315475e-05 -0.022678960048032635 0 1.1140098373315475e-05 -0.022678960048032635 0 0.00072978097920007624 -0.022668500032529036 0 -0.00019537653092810973 -0.021509813153489103 0 0.00038043207428919903 -0.025086226507205357 0 -0.00041602951594858165 -0.023865672836938998 0 0.0023004559149848317 -0.02333043483146691 0 0.00072027144235196862 -0.023570119612958209 0 0.00059086647672592122 -0.022733531229961329 0 5.1998806701945884e-05 -0.029078250343243583 0 0.00031994659792181605 -0.029049130412264319 0 0.00036361522226500232 -0.029408916985481037 0 0.00072027144235196862 -0.023570119612958209 0 1.1140098373315475e-05 -0.022678960048032635 0 0.00072978097920007624 -0.022668500032529036 0 0.00046625950362404341 -0.02304869767977533 0 0.00038043207428919903 -0.025086226507205357 0 -0.00030009394701717461 -0.034068609064465474 0 -0.00031446134087668651 -0.034160005691230566 0 -0.00028971455124387666 -0.034192830098682361 0 0.00027907500401001324 -0.031480162988069882 0 -0.00031632116881889094 -0.031177573950718161 0 0.00038043207428919903 -0.025086226507205357 0 -0.00031632116881889094 -0.031177573950718161 0 -0.00031632116881889094 -0.031177573950718161 0 -0.00076214304574954701 -0.030272031279035747 0 -0.00031446134087668651 -0.034160005691230566 0 -0.00028971455124387666 -0.034192830098682361 0 -0.00031799211608933515 -0.034203185914493991 0 -0.00031632116881889094 -0.031177573950718161 0 -0.00074606164539604554 -0.034157985133825577 0 -0.00028971455124387666 -0.034192830098682361 0 -0.00031799211608933515 -0.034203185914493991 0 -0.00033816265939160797 -0.034241011071472455 0 -0.00032887539478235672 -0.034195570833458089 0 -0.00031799211608933515 -0.034203185914493991 0 -0.00033816265939160797 -0.034241011071472455 0 -0.0011349329536602547 -0.032671079499188856 0 -0.0010900870760875035 -0.032714894397791829 0 -0.0010480288170803026 -0.033141165588666012 0 -0.00028971455124387666 -0.034192830098682361 0 -0.00033816265939160797 -0.034241011071472455 0 -0.00042978831672646061 -0.034250808483470382 0 -0.0010900870760875035 -0.032714894397791829 0 -0.00091808848985196038 -0.032903974004487913 0 -0.0010480288170803026 -0.033141165588666012 0 -0.00067665596713518505 -0.029686708148521042 0 -0.0007738675653347789 -0.029639331957126171 0 -0.00086035898431652291 -0.03297725997066174 0 -0.00091808848985196038 -0.032903974004487913 0 -0.0010480288170803026 -0.033141165588666012 0 -0.00076214304574954701 -0.030272031279035747 0 -0.0007738675653347789 -0.029639331957126171 0 -0.00035454171407815277 -0.026468490194068037 0 -0.00036683133251197409 -0.02643132536070715 0 -0.00044862077203113986 -0.026423002272842326 0 -0.00036683133251197409 -0.02643132536070715 0 -0.00037512839079042418 -0.026424001949248616 0 -0.00044862077203113986 -0.026423002272842326 0 -0.00037512839079042418 -0.026424001949248616 0 -0.00041017336959937682 -0.026392467333331573 0 -0.00044862077203113986 -0.026423002272842326 0 -0.00041017336959937682 -0.026392467333331573 0 -0.00044862077203113986 -0.026423002272842326 0 -0.00047248001965411541 -0.026372817777187838 0 -0.00042289128443609685 -0.026381889474378941 0 -0.00041017336959937682 -0.026392467333331573 0 -0.00047248001965411541 -0.026372817777187838 0 -0.00042289128443609685 -0.026381889474378941 0 -0.00047248001965411541 -0.026372817777187838 0 -0.00047528390087276013 -0.026347386195478998 0 -0.00047248001965411541 -0.026372817777187838 0 -0.00051973055467627782 -0.026362012091166301 0 -0.00052155407126555024 -0.026333119244637979 0 -0.00044862077203113986 -0.026423002272842326 0 -0.00047248001965411541 -0.026372817777187838 0 -0.00051973055467627782 -0.026362012091166301 0 -0.00019537653092810973 -0.021509813153489103 0 -0.00051099989784512902 -0.02147654614642841 0 -0.00068253201730221708 -0.020370784317094787 0 -0.00041602951594858165 -0.023865672836938998 0 -0.00061728649508987403 -0.023382612000983748 0 1.1140098373315475e-05 -0.022678960048032635 0 -0.00019537653092810973 -0.021509813153489103 0 -0.00051099989784512902 -0.02147654614642841 0 -0.00033532627796216451 -0.022688407759399669 0 1.1140098373315475e-05 -0.022678960048032635 0 -0.00051099989784512902 -0.02147654614642841 0 -0.00033532627796216451 -0.022688407759399669 0 -0.00051099989784512902 -0.02147654614642841 0 -0.00071315484001330709 -0.021093445018915115 0 -0.00051099989784512902 -0.02147654614642841 0 -0.00071315484001330709 -0.021093445018915115 0 -0.00092761332008373749 -0.020342929554124142 0 -0.00071315484001330709 -0.021093445018915115 0 -0.00099208266738170332 -0.020119923895109103 0 -0.00092761332008373749 -0.020342929554124142 0 -0.00099208266738170332 -0.020119923895109103 0 -0.00092761332008373749 -0.020342929554124142 0 -0.0011731220681749242 -0.019506384144744537 0 -0.00051099989784512902 -0.02147654614642841 0 -0.00092761332008373749 -0.020342929554124142 0 -0.00068253201730221708 -0.020370784317094787 0 -0.00051973055467627782 -0.026362012091166301 0 -0.00055853734421794018 -0.026305590304503437 0 -0.00052155407126555024 -0.026333119244637979 0 -0.00061728649508987403 -0.023382612000983748 0 -0.00085965448014054902 -0.022921273429416134 0 -0.00092761332008373749 -0.020342929554124142 0 -0.00068253201730221708 -0.020370784317094787 0 -0.0010957652465324224 -0.019563055750388341 0 -0.00092761332008373749 -0.020342929554124142 0 -0.0010957652465324224 -0.019563055750388341 0 -0.0011731220681749242 -0.019506384144744537 0 -0.0010957652465324224 -0.019563055750388341 0 -0.0011893341541290596 -0.019058440078881442 0 -0.0011731220681749242 -0.019506384144744537 0 -0.00085965448014054902 -0.022921273429416134 0 -0.00084933362440281111 -0.022773006249594999 0 -0.0010957652465324224 -0.019563055750388341 0 -0.0011964942201189012 -0.019122669202078543 0 -0.0011893341541290596 -0.019058440078881442 0 -0.0011893341541290596 -0.019058440078881442 0 -0.0011731220681749242 -0.019506384144744537 0 -0.0010999246782604144 -0.018523749851956324 0 -0.00099208266738170332 -0.020119923895109103 0 -0.0011731220681749242 -0.019506384144744537 0 -0.0011602607884492646 -0.019186402146324083 0 -0.0011602607884492646 -0.019186402146324083 0 -0.0010999246782604144 -0.018523749851956324 0 -0.0010823614319587721 -0.018357595928630309 0 -0.0011731220681749242 -0.019506384144744537 0 -0.0011602607884492646 -0.019186402146324083 0 -0.0010999246782604144 -0.018523749851956324 0 -0.0013674775478374275 -0.025036424876920541 0 -0.0015413990371312494 -0.025221674777801763 0 -0.0011863694742015912 -0.025308535027479519 0 -0.001541