<?xml version="1.0"?>
<VTKFile type="UnstructuredGrid" version="0.1" byte_order="LittleEndian">
<UnstructuredGrid>
<Piece NumberOfPoints="30045" NumberOfCells="10572">
<Points>
<DataArray type="Float64" NumberOfComponents="3" format="ascii">
-0.5 -0.5 0 -0.4634671666352253 -0.44982838100205952 0 -0.43135881676793209 -0.5 0 -0.5 -0.5 0 -0.4634671666352253 -0.44982838100205952 0 -0.5 -0.41236866247181359 0 -0.4634671666352253 -0.44982838100205952 0 -0.44845164944057869 -0.42843387413040129 0 -0.42787214779242039 -0.45397278142230552 0 -0.4634671666352253 -0.44982838100205952 0 -0.43135881676793209 -0.5 0 -0.42787214779242039 -0.45397278142230552 0 -0.5 -0.41236866247181359 0 -0.5 -0.34619889210400012 0 -0.46830564138245429 -0.37405977383715833 0 -0.4634671666352253 -0.44982838100205952 0 -0.5 -0.41236866247181359 0 -0.46866313715475583 -0.40195023975172128 0 -0.5 -0.41236866247181359 0 -0.46866313715475583 -0.40195023975172128 0 -0.46830564138245429 -0.37405977383715833 0 -0.45014442940217447 -0.4013185625992165 0 -0.44237042933033438 -0.38196934837481322 0 -0.46830564138245429 -0.37405977383715833 0 -0.46866313715475583 -0.40195023975172128 0 -0.45014442940217447 -0.4013185625992165 0 -0.46830564138245429 -0.37405977383715833 0 -0.45014442940217447 -0.4013185625992165 0 -0.43877358317869503 -0.39495758247990898 0 -0.44237042933033438 -0.38196934837481322 0 -0.45014442940217447 -0.4013185625992165 0 -0.43877358317869503 -0.39495758247990898 0 -0.43574731497708252 -0.40461316207953718 0 -0.4634671666352253 -0.44982838100205952 0 -0.46866313715475583 -0.40195023975172128 0 -0.44845164944057869 -0.42843387413040129 0 -0.46866313715475583 -0.40195023975172128 0 -0.45014442940217447 -0.4013185625992165 0 -0.44845164944057869 -0.42843387413040129 0 -0.45014442940217447 -0.4013185625992165 0 -0.44845164944057869 -0.42843387413040129 0 -0.43527036971826921 -0.41432199580611179 0 -0.45014442940217447 -0.4013185625992165 0 -0.43527036971826921 -0.41432199580611179 0 -0.43574731497708252 -0.40461316207953718 0 -0.44845164944057869 -0.42843387413040129 0 -0.42269405879196881 -0.4299652991457677 0 -0.42787214779242039 -0.45397278142230552 0 -0.44845164944057869 -0.42843387413040129 0 -0.42269405879196881 -0.4299652991457677 0 -0.43527036971826921 -0.41432199580611179 0 -0.43272409345465118 -0.40649143991083281 0 -0.4218606722431596 -0.41510963697091602 0 -0.41535231610346118 -0.40340386211647927 0 -0.42269405879196881 -0.4299652991457677 0 -0.43527036971826921 -0.41432199580611179 0 -0.4218606722431596 -0.41510963697091602 0 -0.43527036971826921 -0.41432199580611179 0 -0.43272409345465118 -0.40649143991083281 0 -0.43574731497708252 -0.40461316207953718 0 -0.43527036971826921 -0.41432199580611179 0 -0.43272409345465118 -0.40649143991083281 0 -0.4218606722431596 -0.41510963697091602 0 -0.4218606722431596 -0.41510963697091602 0 -0.41535231610346118 -0.40340386211647927 0 -0.39694450630356382 -0.41800748927566189 0 -0.42269405879196881 -0.4299652991457677 0 -0.4218606722431596 -0.41510963697091602 0 -0.39694450630356382 -0.41800748927566189 0 -0.42269405879196881 -0.4299652991457677 0 -0.39694450630356382 -0.41800748927566189 0 -0.40140307788713869 -0.44345915097682193 0 -0.42953637925293531 -0.3789970899339139 0 -0.42622966209021679 -0.39477444302758252 0 -0.41869962375579017 -0.38699038822924992 0 -0.43877358317869503 -0.39495758247990898 0 -0.44237042933033438 -0.38196934837481322 0 -0.42622966209021679 -0.39477444302758252 0 -0.44237042933033438 -0.38196934837481322 0 -0.42622966209021679 -0.39477444302758252 0 -0.44237042933033438 -0.38196934837481322 0 -0.42953637925293531 -0.3789970899339139 0 -0.42622966209021679 -0.39477444302758252 0 -0.44237042933033438 -0.38196934837481322 0 -0.42953637925293531 -0.3789970899339139 0 -0.43845461566448929 -0.36632022719094198 0 -0.42953637925293531 -0.3789970899339139 0 -0.41869962375579017 -0.38699038822924992 0 -0.42300441447708698 -0.36755678409028453 0 -0.43272409345465118 -0.40649143991083281 0 -0.42622966209021679 -0.39477444302758252 0 -0.41535231610346118 -0.40340386211647927 0 -0.43272409345465118 -0.40649143991083281 0 -0.41535231610346118 -0.40340386211647927 0 -0.42622966209021679 -0.39477444302758252 0 -0.41869962375579017 -0.38699038822924992 0 -0.43877358317869503 -0.39495758247990898 0 -0.42622966209021679 -0.39477444302758252 0 -0.43574731497708252 -0.40461316207953718 0 -0.43272409345465118 -0.40649143991083281 0 -0.42622966209021679 -0.39477444302758252 0 -0.43574731497708252 -0.40461316207953718 0 -0.42622966209021679 -0.39477444302758252 0 -0.43574731497708252 -0.40461316207953718 0 -0.42622966209021679 -0.39477444302758252 0 -0.41535231610346118 -0.40340386211647927 0 -0.41535231610346118 -0.40340386211647927 0 -0.41391400598243439 -0.39127880851499391 0 -0.40298414627967288 -0.3878129695567461 0 -0.42622966209021679 -0.39477444302758252 0 -0.41391400598243439 -0.39127880851499391 0 -0.41869962375579017 -0.38699038822924992 0 -0.42622966209021679 -0.39477444302758252 0 -0.41535231610346118 -0.40340386211647927 0 -0.41391400598243439 -0.39127880851499391 0 -0.41869962375579017 -0.38699038822924992 0 -0.41221174667866239 -0.36592784423694852 0 -0.41869962375579017 -0.38699038822924992 0 -0.4110898994563868 -0.37912395935916782 0 -0.41221174667866239 -0.36592784423694852 0 -0.41869962375579017 -0.38699038822924992 0 -0.4110898994563868 -0.37912395935916782 0 -0.41391400598243439 -0.39127880851499391 0 -0.41869962375579017 -0.38699038822924992 0 -0.4110898994563868 -0.37912395935916782 0 -0.41391400598243439 -0.39127880851499391 0 -0.4110898994563868 -0.37912395935916782 0 -0.40298414627967288 -0.3878129695567461 0 -0.3928313723333472 -0.38163856157133952 0 -0.40298414627967288 -0.3878129695567461 0 -0.39549940799503103 -0.39987529984045461 0 -0.3928313723333472 -0.38163856157133952 0 -0.39891048992789918 -0.37682849517642669 0 -0.40298414627967288 -0.3878129695567461 0 -0.3928313723333472 -0.38163856157133952 0 -0.39891048992789918 -0.37682849517642669 0 -0.39169689474753228 -0.37209350970412708 0 -0.4110898994563868 -0.37912395935916782 0 -0.39891048992789918 -0.37682849517642669 0 -0.40298414627967288 -0.3878129695567461 0 -0.41535231610346118 -0.40340386211647927 0 -0.39549940799503103 -0.39987529984045461 0 -0.41535231610346118 -0.40340386211647927 0 -0.40298414627967288 -0.3878129695567461 0 -0.39549940799503103 -0.39987529984045461 0 -0.39549940799503103 -0.39987529984045461 0 -0.37564649988660093 -0.3963467375644294 0 -0.39549940799503103 -0.39987529984045461 0 -0.37564649988660093 -0.3963467375644294 0 -0.37902612999574631 -0.41432474878288822 0 -0.39549940799503103 -0.39987529984045461 0 -0.37564649988660093 -0.3963467375644294 0 -0.37960362824264998 -0.38357680640087449 0 -0.3928313723333472 -0.38163856157133952 0 -0.39549940799503103 -0.39987529984045461 0 -0.37960362824264998 -0.38357680640087449 0 -0.37960362824264998 -0.38357680640087449 0 -0.38222327521494581 -0.37046698350013652 0 -0.36753041268072872 -0.37730783582517319 0 -0.3928313723333472 -0.38163856157133952 0 -0.37960362824264998 -0.38357680640087449 0 -0.38222327521494581 -0.37046698350013652 0 -0.39694450630356382 -0.41800748927566189 0 -0.37853669650366678 -0.43261111643484501 0 -0.40140307788713869 -0.44345915097682193 0 -0.41535231610346118 -0.40340386211647927 0 -0.39694450630356382 -0.41800748927566189 0 -0.41535231610346118 -0.40340386211647927 0 -0.39549940799503103 -0.39987529984045461 0 -0.39694450630356382 -0.41800748927566189 0 -0.39694450630356382 -0.41800748927566189 0 -0.37902612999574631 -0.41432474878288822 0 -0.37853669650366678 -0.43261111643484501 0 -0.39549940799503103 -0.39987529984045461 0 -0.39694450630356382 -0.41800748927566189 0 -0.37902612999574631 -0.41432474878288822 0 -0.39694450630356382 -0.41800748927566189 0 -0.37853669650366678 -0.43261111643484501 0 -0.37853669650366678 -0.43261111643484501 0 -0.40140307788713869 -0.44345915097682193 0 -0.37756091119068341 -0.45547083511181269 0 -0.40140307788713869 -0.44345915097682193 0 -0.37756091119068341 -0.45547083511181269 0 -0.39985811723167958 -0.47214998327878283 0 -0.37756091119068341 -0.45547083511181269 0 -0.39985811723167958 -0.47214998327878283 0 -0.37451570269174711 -0.47737193454193311 0 -0.37979862866570641 -0.5 0 -0.39985811723167958 -0.47214998327878283 0 -0.37451570269174711 -0.47737193454193311 0 -0.37979862866570641 -0.5 0 -0.39985811723167958 -0.47214998327878283 0 -0.43135881676793209 -0.5 0 -0.39985811723167958 -0.47214998327878283 0 -0.43135881676793209 -0.5 0 -0.42787214779242039 -0.45397278142230552 0 -0.42269405879196881 -0.4299652991457677 0 -0.40140307788713869 -0.44345915097682193 0 -0.42787214779242039 -0.45397278142230552 0 -0.40140307788713869 -0.44345915097682193 0 -0.39985811723167958 -0.47214998327878283 0 -0.42787214779242039 -0.45397278142230552 0 -0.5 -0.29624040081863412 0 -0.49999999999999872 -0.23003002556286931 0 -0.4827187744681663 -0.24337415047728311 0 -0.4481563234045024 -0.27006240030611189 0 -0.4319575720331516 -0.26179597195830667 0 -0.4441751168952755 -0.24878028328113941 0 -0.4481563234045024 -0.27006240030611189 0 -0.46543754893633432 -0.2567182753916975 0 -0.4441751168952755 -0.24878028328113941 0 -0.4481563234045024 -0.27006240030611189 0 -0.43387500380453348 -0.28253257577139501 0 -0.4319575720331516 -0.26179597195830667 0 -0.4481563234045024 -0.27006240030611189 0 -0.47163858447348939 -0.27270757708508869 0 -0.46188027555844419 -0.29714265843171728 0 -0.4481563234045024 -0.27006240030611189 0 -0.46543754893633432 -0.2567182753916975 0 -0.47163858447348939 -0.27270757708508869 0 -0.4481563234045024 -0.27006240030611189 0 -0.46543754893633432 -0.2567182753916975 0 -0.47163858447348939 -0.27270757708508869 0 -0.5 -0.29624040081863412 0 -0.4827187744681663 -0.24337415047728311 0 -0.46543754893633432 -0.2567182753916975 0 -0.47163858447348939 -0.27270757708508869 0 -0.4827187744681663 -0.24337415047728311 0 -0.46543754893633432 -0.2567182753916975 0 -0.4827187744681663
[...]
<PointData Scalars="" Vectors="displacement," Tensors="">
<DataArray type="Float64" Name="displacement" NumberOfComponents="3" format="ascii">
-0.034996552786620991 -1.6815397140013586e-07 0 -0.033098439440385916 -0.00021721694157508589 0 -0.030196716467348235 -3.4879019411722021e-07 0 -0.034996552786620991 -1.6815397140013586e-07 0 -0.033098439440385916 -0.00021721694157508589 0 -0.034996780954735907 -7.1425221041715552e-07 0 -0.033098439440385916 -0.00021721694157508589 0 -0.032837554533845362 -0.00011251287371462562 0 -0.031014285111390455 4.8066207403685938e-05 0 -0.033098439440385916 -0.00021721694157508589 0 -0.030196716467348235 -3.4879019411722021e-07 0 -0.031014285111390455 4.8066207403685938e-05 0 -0.034996780954735907 -7.1425221041715552e-07 0 -0.035000138511608846 -2.9464664481462892e-09 0 -0.034573010180797337 -0.00013454494859753982 0 -0.033098439440385916 -0.00021721694157508589 0 -0.034996780954735907 -7.1425221041715552e-07 0 -0.034172671892832331 -0.00011771615146753595 0 -0.034996780954735907 -7.1425221041715552e-07 0 -0.034172671892832331 -0.00011771615146753595 0 -0.034573010180797337 -0.00013454494859753982 0 -0.033716853794402465 -4.3922661317662175e-05 0 -0.034257365176957232 0.0001228474206351292 0 -0.034573010180797337 -0.00013454494859753982 0 -0.034172671892832331 -0.00011771615146753595 0 -0.033716853794402465 -4.3922661317662175e-05 0 -0.034573010180797337 -0.00013454494859753982 0 -0.033716853794402465 -4.3922661317662175e-05 0 -0.033759110874834776 0.00020581359199096539 0 -0.034257365176957232 0.0001228474206351292 0 -0.033716853794402465 -4.3922661317662175e-05 0 -0.033759110874834776 0.00020581359199096539 0 -0.033154541119533192 0.00020827694211175707 0 -0.033098439440385916 -0.00021721694157508589 0 -0.034172671892832331 -0.00011771615146753595 0 -0.032837554533845362 -0.00011251287371462562 0 -0.034172671892832331 -0.00011771615146753595 0 -0.033716853794402465 -4.3922661317662175e-05 0 -0.032837554533845362 -0.00011251287371462562 0 -0.033716853794402465 -4.3922661317662175e-05 0 -0.032837554533845362 -0.00011251287371462562 0 -0.032743380604881758 0.00013186885536801428 0 -0.033716853794402465 -4.3922661317662175e-05 0 -0.032743380604881758 0.00013186885536801428 0 -0.033154541119533192 0.00020827694211175707 0 -0.032837554533845362 -0.00011251287371462562 0 -0.031573439078912163 0.00019744881808639582 0 -0.031014285111390455 4.8066207403685938e-05 0 -0.032837554533845362 -0.00011251287371462562 0 -0.031573439078912163 0.00019744881808639582 0 -0.032743380604881758 0.00013186885536801428 0 -0.032962390974094022 0.00027375619967451244 0 -0.0321770823278087 0.00033287043930271582 0 -0.032389697884403705 0.00050550251590682162 0 -0.031573439078912163 0.00019744881808639582 0 -0.032743380604881758 0.00013186885536801428 0 -0.0321770823278087 0.00033287043930271582 0 -0.032743380604881758 0.00013186885536801428 0 -0.032962390974094022 0.00027375619967451244 0 -0.033154541119533192 0.00020827694211175707 0 -0.032743380604881758 0.00013186885536801428 0 -0.032962390974094022 0.00027375619967451244 0 -0.0321770823278087 0.00033287043930271582 0 -0.0321770823278087 0.00033287043930271582 0 -0.032389697884403705 0.00050550251590682162 0 -0.031062878376429057 0.00078553348349130704 0 -0.031573439078912163 0.00019744881808639582 0 -0.0321770823278087 0.00033287043930271582 0 -0.031062878376429057 0.00078553348349130704 0 -0.031573439078912163 0.00019744881808639582 0 -0.031062878376429057 0.00078553348349130704 0 -0.029850971641885479 0.00045905934526274206 0 -0.03430447167619835 0.00025610378846441066 0 -0.034065508475189431 0.00030902162984233934 0 -0.034167086069945597 0.00040810414957557605 0 -0.033759110874834776 0.00020581359199096539 0 -0.034257365176957232 0.0001228474206351292 0 -0.033744277132372748 0.00075234811394698348 0 -0.035178802461799129 -0.00075193159223463238 0 -0.030431688560598431 0.0021748904144501548 0 -0.034257365176957232 0.0001228474206351292 0 -0.03430447167619835 0.00025610378846441066 0 -0.034065508475189431 0.00030902162984233934 0 -0.034257365176957232 0.0001228474206351292 0 -0.03430447167619835 0.00025610378846441066 0 -0.034517011730110257 0.00015287964979218433 0 -0.03430447167619835 0.00025610378846441066 0 -0.034167086069945597 0.00040810414957557605 0 -0.034477797283270467 0.0002911247676674052 0 -0.032962390974094022 0.00027375619967451244 0 -0.033542437665888498 0.00064114579586448659 0 -0.033061162210547439 0.0012447862234352763 0 -0.03276505712270357 -0.00051984351788696289 0 -0.028761531927953093 0.0040523069830830476 0 -0.030431688560598431 0.0021748904144501548 0 -0.028838263825519461 0.0046469917354885855 0 -0.033759110874834776 0.00020581359199096539 0 -0.033744277132372748 0.00075234811394698348 0 -0.033154541119533192 0.00020827694211175707 0 -0.032962390974094022 0.00027375619967451244 0 -0.033542437665888498 0.00064114579586448659 0 -0.033154541119533192 0.00020827694211175707 0 -0.030431688560598431 0.0021748904144501548 0 -0.033076530442284445 0.00090494951207046378 0 -0.030431688560598431 0.0021748904144501548 0 -0.028761531927953093 0.0040523069830830476 0 -0.02451913672485212 0.0085617025085203344 0 -0.022862894501838631 0.0083842235330070462 0 -0.02236006738971056 0.0069264919378341748 0 -0.023370881833103985 0.0099964701925980386 0 -0.022862894501838631 0.0083842235330070462 0 -0.02229122041427279 0.009023338568660862 0 -0.023370881833103985 0.0099964701925980386 0 -0.02451913672485212 0.0085617025085203344 0 -0.022862894501838631 0.0083842235330070462 0 -0.028838263825519461 0.0046469917354885855 0 -0.030773661274159654 0.001099082799740864 0 -0.028245198458438564 0.0045910412657450776 0 -0.027391921312084951 0.0037668190814333976 0 -0.025974197118546136 0.0038805845704324919 0 -0.028838263825519461 0.0046469917354885855 0 -0.02469587925229114 0.0055293736723681991 0 -0.022862894501838631 0.0083842235330070462 0 -0.02229122041427279 0.009023338568660862 0 -0.021160242862335022 0.0080334048431329897 0 -0.022862894501838631 0.0083842235330070462 0 -0.021160242862335022 0.0080334048431329897 0 -0.02236006738971056 0.0069264919378341748 0 -0.021433667135419089 0.0055201895414464545 0 -0.02236006738971056 0.0069264919378341748 0 -0.024050121795657044 0.005938327298623999 0 -0.021433667135419089 0.0055201895414464545 0 -0.020780594881833179 0.006336097575441413 0 -0.02236006738971056 0.0069264919378341748 0 -0.021433667135419089 0.0055201895414464545 0 -0.020780594881833179 0.006336097575441413 0 -0.020073527243645511 0.0053210696805648106 0 -0.021160242862335022 0.0080334048431329897 0 -0.020780594881833179 0.006336097575441413 0 -0.02236006738971056 0.0069264919378341748 0 -0.028761531927953093 0.0040523069830830476 0 -0.024557812411052253 0.0050234427483179271 0 -0.02451913672485212 0.0085617025085203344 0 -0.02236006738971056 0.0069264919378341748 0 -0.024050121795657044 0.005938327298623999 0 -0.024557812411052253 0.0050234427483179271 0 -0.024339286055985627 0.0022000866725187885 0 -0.025280597934009292 0.0032289184059242229 0 -0.024958244255765809 0.0015097578982446883 0 -0.02660813213051974 0.0015891973350164795 0 -0.024050121795657044 0.005938327298623999 0 -0.023760446336985593 0.0032268588029929005 0 -0.021626370927699434 0.0037545165375472223 0 -0.021433667135419089 0.0055201895414464545 0 -0.024050121795657044 0.005938327298623999 0 -0.021626370927699434 0.0037545165375472223 0 -0.021626370927699434 0.0037545165375472223 0 -0.019792842853626473 0.0039944493213412893 0 -0.020341636344851859 0.0019723855119495167 0 -0.021433667135419089 0.0055201895414464545 0 -0.021626370927699434 0.0037545165375472223 0 -0.019792842853626473 0.0039944493213412893 0 -0.031062878376429057 0.00078553348349130704 0 -0.02866032706924701 0.0010750515072152941 0 -0.029850971641885479 0.00045905934526274206 0 -0.028761531927953093 0.0040523069830830476 0 -0.029150587120902176 0.0017452754009240452 0 -0.025649552805597914 0.0051008848826106434 0 -0.025280597934009292 0.0032289184059242229 0 -0.027021493615015171 0.0033773701573324368 0 -0.027021493615015171 0.0033773701573324368 0 -0.02660813213051974 0.0015891973350164795 0 -0.02866032706924701 0.0010750515072152941 0 -0.025280597934009292 0.0032289184059242229 0 -0.027021493615015171 0.0033773701573324368 0 -0.02660813213051974 0.0015891973350164795 0 -0.029150587120902176 0.0017452754009240452 0 -0.028799797559915474 0.0012529143427155161 0 -0.02866032706924701 0.0010750515072152941 0 -0.029850971641885479 0.00045905934526274206 0 -0.028334451771183534 0.00044322184504935774 0 -0.029850971641885479 0.00045905934526274206 0 -0.028334451771183534 0.00044322184504935774 0 -0.028933281112841689 0.00010625311738149125 0 -0.028334451771183534 0.00044322184504935774 0 -0.028933281112841689 0.00010625311738149125 0 -0.027365721055736657 0.00011154458333640903 0 -0.026587006210745907 3.8840784300218638e-07 0 -0.028933281112841689 0.00010625311738149125 0 -0.027365721055736657 0.00011154458333640903 0 -0.026587006210745907 3.8840784300218638e-07 0 -0.028933281112841689 0.00010625311738149125 0 -0.030196716467348235 -3.4879019411722021e-07 0 -0.028933281112841689 0.00010625311738149125 0 -0.030196716467348235 -3.4879019411722021e-07 0 -0.031014285111390455 4.8066207403685938e-05 0 -0.031573439078912163 0.00019744881808639582 0 -0.029850971641885479 0.00045905934526274206 0 -0.031014285111390455 4.8066207403685938e-05 0 -0.029850971641885479 0.00045905934526274206 0 -0.028933281112841689 0.00010625311738149125 0 -0.031014285111390455 4.8066207403685938e-05 0 -0.034999738193593671 -1.5045952912172387e-08 0 -0.035000091488986577 2.6556590774046099e-08 0 -0.034990127610317258 8.3850155945774721e-06 0 -0.03489841398026023 7.5131487894805553e-05 0 -0.034856944973567151 8.3735375702864039e-05 0 -0.034854676694908361 8.0899779193048448e-05 0 -0.03489841398026023 7.5131487894805553e-05 0 -0.034865903295098727 7.6650702100208016e-05 0 -0.034854676694908361 8.0899779193048448e-05 0 -0.03489841398026023 7.5131487894805553e-05 0 -0.034871093360648871 9.2747835168561463e-05 0 -0.034856944973567151 8.3735375702864039e-05 0 -0.03489841398026023 7.5131487894805553e-05 0 -0.034956277291486065 2.5150691237441741e-05 0 -0.034916057804805688 3.7720604003825726e-05 0 -0.03489841398026023 7.5131487894805553e-05 0 -0.034972832061158324 3.4594470011807145e-05 0 -0.034956277291486065 2.5150691237441741e-05 0 -0.034903075829599922 7.1188721724161483e-05 0 -0.034919667859358808 5.3325599233529634e-05 0 -0.034956277291486065 2.5150691237441741e-05 0 -0.034999738193593671 -1.5045952912172387e-08 0 -0.034990127610317258 8.3850155945774721e-06 0 -0.034972832061158324 3.4594470011807145e-05 0 -0.034956277291486065 2.5150691237441741e-05 0 -0.034990127610317258 8.3850155945774721e-06 0 -0.034919667859358808 5.3325599233529634e-05 0 -0.034944025398841928 2.7269594062633713e-05 0 -0.034956277291486065 2.5150691237441741e-05 0 -0.034999738193593671 -1.5045952912172387e-08 0 -0.034916057804805688 3.7720604003825726e-05 0 -0.034999738193593671 -1.5045952912172387e-08 0 -0.034916057804805688 3.7720604003825726e-05 0 -0.034916271170128826 -4.6748224085740669e-06 0 -0.034916057804805688 3.7720604003825726e-05 0 -0.034854233577292879 0.00010237513009663661 0 -0.034871093360648871 9.2747835168561463e-05 0 -0.03489841398026023 7.5131487894805553e-05 0 -0.034916057804805688 3.7720604003825726e-05 0 -0.034871093360648871 9.2747835168561463e-05 0 -0.034916057804805688 3.7720604003825726e-05 0 -0.034831630007066572 6.5223538218829187e-05 0 -0.034854233577292879 0.00010237513009663661 0 -0.034831630007066572 6.5223538218829187e-05 0 -0.034703061758671244 5.9644869228284538e-05 0 -0.03465431128842425 0.00022998879670249158 0 -0.034831630007066572 6.5223538218829187e-05 0 -0.034835119409755852 -2.6484184893466683e-05 0 -0.034703061758671244 5.9644869228284538e-05 0 -0.034831630007066572 6.5223538218829187e-05 0 -0.034916271170128826 -4.6748224085740669e-06 0 -0.034835119409755852 -2.6484184893466683e-05 0 -0.034916057804805688 3.7720604003825726e-05 0 -0.034831630007066572 6.5223538218829187e-05 0 -0.034916271170128826 -4.6748224085740669e-06 0 -0.034999738193593671 -1.5045952912172387e-08 0 -0.034916271170128826 -4.6748224085740669e-06 0 -0.035000138511608846 -2.9464664481462892e-09 0 -0.034916271170128826 -4.6748224085740669e-06 0 -0.034835119409755852 -2.6484184893466683e-05 0 -0.035000138511608846 -2.9464664481462892e-09 0 -0.034835119409755852 -2.6484184893466683e-05 0 -0.035000138511608846 -2.9464664481462892e-09 0 -0.034573010180797337 -0.00013454494859753982 0 -0.034835119409755852 -2.6484184893466683e-05 0 -0.034573010180797337 -0.00013454494859753982 0 -0.034703061758671244 5.9644869228284538e-05 0 -0.034257365176957232 0.0001228474206351292 0 -0.034573010180797337 -0.00013454494859753982 0 -0.034517011730110257 0.00015287964979218433 0 -0.034573010180797337 -0.00013454494859753982 0 -0.034703061758671244 5.9644869228284538e-05 0 -0.034517011730110257 0.00015287964979218433 0 -0.034517011730110257 0.00015287964979218433 0 -0.034477797283270467 0.0002911247676674052 0 -0.03465431128842425 0.00022998879670249158 0 -0.03430447167619835 0.00025610378846441066 0 -0.034517011730110257 0.00015287964979218433 0 -0.034477797283270467 0.0002911247676674052 0 -0.034703061758671244 5.9644869228284538e-05 0 -0.034517011730110257 0.00015287964979218433 0 -0.03465431128842425 0.00022998879670249158 0 -0.03465431128842425 0.00022998879670249158 0 -0.034500660507431467 0.00032383102888826923 0 -0.034692268946762514 0.0002571129625013785 0 -0.030773661274159654 0.001099082799740864 0 -0.030864607098650507 0.00026706696310312123 0 -0.034167086069945597 0.00040810414957557605 0 -0.034477797283270467 0.0002911247676674052 0 -0.034482696631969935 0.0004706315343386179 0 -0.027391921312084951 0.0037668190814333976 0 -0.025974197118546136 0.0038805845704324919 0 -0.025683825247965135 0.0021342783194003359 0 -0.034477797283270467 0.0002911247676674052 0 -0.03465431128842425 0.00022998879670249158 0 -0.034500660507431467 0.00032383102888826923 0 -0.033220487038794079 0.00048173224263975027 0 -0.030773661274159654 0.001099082799740864 0 -0.021160242862335022 0.0080334048431329897 0 -0.020780594881833179 0.006336097575441413 0 -0.018874067111695078 0.0058798706359580906 0 -0.02469587925229114 0.0055293736723681991 0 -0.022608847759895863 0.0030122334156793438 0 -0.030773661274159654 0.001099082799740864 0 -0.022608847759895863 0.0030122334156793438 0 -0.022608847759895863 0.0030122334156793438 0 -0.022542524421872639 0.0021630173254243031 0 -0.020780594881833179 0.006336097575441413 0 -0.018874067111695078 0.0058798706359580906 0 -0.020073527243645511 0.0053210696805648106 0 -0.022608847759895863 0.0030122334156793438 0 -0.018280489738431042 0.0022634140799471032 0 -0.018874067111695078 0.0058798706359580906 0 -0.020073527243645511 0.0053210696805648106 0 -0.019792842853626473 0.0039944493213412893 0 -0.021433667135419089 0.0055201895414464545 0 -0.020073527243645511 0.0053210696805648106 0 -0.019792842853626473 0.0039944493213412893 0 -0.018953163998091882 0.0022071073114235157 0 -0.018885483000007947 0.0021523431371604984 0 -0.018771219993322871 0.0016176930739234955 0 -0.018874067111695078 0.0058798706359580906 0 -0.019792842853626473 0.0039944493213412893 0 -0.018531696740041986 0.0024880159940475779 0 -0.018885483000007947 0.0021523431371604984 0 -0.018621748671355968 0.0019148480400832809 0 -0.018771219993322871 0.0016176930739234955 0 -0.022761147900608802 0.0012431860070886438 0 -0.022735523936108684 0.0013004427396926179 0 -0.018532508294332905 0.0018233044286676699 0 -0.018621748671355968 0.0019148480400832809 0 -0.018771219993322871 0.0016176930739234955 0 -0.022542524421872639 0.0021630173254243031 0 -0.022735523936108684 0.0013004427396926179 0 -0.027023071494127117 0.00049563368059371581 0 -0.026998909493977822 0.00053340504469440956 0 -0.02709262471107381 0.00048633367522912867 0 -0.026998909493977822 0.00053340504469440956 0 -0.027001222644412532 0.0005377470316765251 0 -0.02709262471107381 0.00048633367522912867 0 -0.027001222644412532 0.0005377470316765251 0 -0.027011365903721999 0.00056566564522039222 0 -0.02709262471107381 0.00048633367522912867 0 -0.027011365903721999 0.00056566564522039222 0 -0.02709262471107381 0.00048633367522912867 0 -0.027110189956060977 0.00056356490446625321 0 -0.027020673800622421 0.00058219133163131683 0 -0.027011365903721999 0.00056566564522039222 0 -0.027110189956060977 0.00056356490446625321 0 -0.027020673800622421 0.00058219133163131683 0 -0.027110189956060977 0.00056356490446625321 0 -0.027070043000719225 0.00068450133926656331 0 -0.027110189956060977 0.00056356490446625321 0 -0.027261027898166409 0.00048305565920737638 0 -0.027248683601388376 0.00064076212409348821 0 -0.02709262471107381 0.00048633367522912867 0 -0.027110189956060977 0.00056356490446625321 0 -0.027261027898166409 0.00048305565920737638 0 -0.034692268946762514 0.0002571129625013785 0 -0.034788418149472755 0.00016770787978552905 0 -0.034778787491886079 0.00017243320581687366 0 -0.030864607098650507 0.00026706696310312123 0 -0.031040180471892682 0.00034775503437642493 0 -0.03465431128842425 0.00022998879670249158 0 -0.034692268946762514 0.0002571129625013785 0 -0.034788418149472755 0.00016770787978552905 0 -0.034831630007066572 6.5223538218829187e-05 0 -0.03465431128842425 0.00022998879670249158 0 -0.034788418149472755 0.00016770787978552905 0 -0.034831630007066572 6.5223538218829187e-05 0 -0.034788418149472755 0.00016770787978552905 0 -0.034854233577292879 0.00010237513009663661 0 -0.034788418149472755 0.00016770787978552905 0 -0.034854233577292879 0.00010237513009663661 0 -0.034829960648543004 0.00012715212893157758 0 -0.034854233577292879 0.00010237513009663661 0 -0.034871093360648871 9.2747835168561463e-05 0 -0.034829960648543004 0.00012715212893157758 0 -0.034871093360648871 9.2747835168561463e-05 0 -0.034829960648543004 0.00012715212893157758 0 -0.034833712286320817 9.4409193811954709e-05 0 -0.034788418149472755 0.00016770787978552905 0 -0.034829960648543004 0.00012715212893157758 0 -0.034778787491886079 0.00017243320581687366 0 -0.027261027898166409 0.00048305565920737638 0 -0.027503880173034703 0.00051197424521916182 0 -0.027248683601388376 0.00064076212409348821 0 -0.031040180471892682 0.00034775503437642493 0 -0.031082505805611848 0.00029312703794424515 0 -0.034829960648543004 0.00012715212893157758 0 -0.034778787491886079 0.00017243320581687366 0 -0.034796637035976408 0.00010043927444344778 0 -0.034829960648543004 0.00012715212893157758 0 -0.034796637035976408 0.00010043927444344778 0 -0.034833712286320817 9.4409193811954709e-05 0 -0.034796637035976408 0.00010043927444344778 0 -0.034798624313128357 7.1085082645153905e-05 0 -0.034833712286320817 9.4409193811954709e-05 0 -0.031082505805611848 0.00029312703794424515 0 -0.031576871554172894 0.00033418422917663753 0 -0.034796637035976408 0.00010043927444344778 0 -0.034769478159164049 4.4045292967965266e-05 0 -0.034798624313128357 7.1085082645153905e-05 0 -0.034798624313128357 7.1085082645153905e-05 0 -0.034833712286320817 9.4409193811954709e-05 0 -0.034818514993009517 8.0267955962472616e-05 0 -0.034871093360648871 9.2747835168561463e-05 0 -0.034833712286320817 9.4409193811954709e-05 0 -0.034856944973567151 8.3735375702864039e-05 0 -0.034856944973567151 8.3735375702864039e-05 0 -0.034818514993009517 8.0267955962472616e-05 0 -0.034854676694908361 8.0899779193048448e-05 0 -0.034833712286320817 9.4409193811954709e-05 0 -0.034856944973567151 8.3735375702864039e-05 0 -0.034818514993009517 8.0267955962472616e-05 0 -0.021682233675478415 -0.00022895671876288146 0 -0.02131100506956617 9.3706026649278948e-05 0 -0.022037170108975383 0.00036308012582550832 0 -0.02131100506956617 9.3706026649278948e-05 0 -0.020955341690860121 -0.00022134807355821568 0 -0.020740035388974662 -5.2454902655263635e-05 0 -0.019493795845804393 0.00061820514087533942 0 -0.019359628603251515 0.00047454185581092791 0 -0.021682233675478415 -