<?xml version="1.0"?>
<VTKFile type="UnstructuredGrid" version="0.1" byte_order="LittleEndian">
<UnstructuredGrid>
<Piece NumberOfPoints="31898" NumberOfCells="11152">
<Points>
<DataArray type="Float64" NumberOfComponents="3" format="ascii">
-0.5 -0.5 0 -0.47620991077874902 -0.44978878706170539 0 -0.49999999999999473 -0.42132396840504388 0 -0.5 -0.5 0 -0.47160970827802529 -0.4793630013852106 0 -0.47620991077874902 -0.44978878706170539 0 -0.5 -0.5 0 -0.47160970827802529 -0.4793630013852106 0 -0.44860394795025399 -0.5 0 -0.47160970827802529 -0.4793630013852106 0 -0.44860394795025399 -0.5 0 -0.4490820238307246 -0.45820516232899983 0 -0.44860394795025399 -0.5 0 -0.4490820238307246 -0.45820516232899983 0 -0.42881687682924802 -0.47781464288736519 0 -0.4490820238307246 -0.45820516232899983 0 -0.45555437223955858 -0.42914059360647611 0 -0.4490820238307246 -0.45820516232899983 0 -0.45555437223955858 -0.42914059360647611 0 -0.43867285131603428 -0.4271457417558665 0 -0.4490820238307246 -0.45820516232899983 0 -0.43867285131603428 -0.4271457417558665 0 -0.4263356171060747 -0.44269880333887462 0 -0.47160970827802529 -0.4793630013852106 0 -0.4490820238307246 -0.45820516232899983 0 -0.47620991077874902 -0.44978878706170539 0 -0.4490820238307246 -0.45820516232899983 0 -0.47620991077874902 -0.44978878706170539 0 -0.45555437223955858 -0.42914059360647611 0 -0.47620991077874902 -0.44978878706170539 0 -0.48101336032419229 -0.41069999664450008 0 -0.45555437223955858 -0.42914059360647611 0 -0.47620991077874902 -0.44978878706170539 0 -0.49999999999999473 -0.42132396840504388 0 -0.48101336032419229 -0.41069999664450008 0 -0.49999999999999473 -0.42132396840504388 0 -0.48101336032419229 -0.41069999664450008 0 -0.5 -0.393886241813306 0 -0.49999999999999473 -0.42132396840504388 0 -0.48101336032419229 -0.41069999664450008 0 -0.5 -0.393886241813306 0 -0.47854472220918332 -0.38978458738689759 0 -0.48422759779560409 -0.37130120630367158 0 -0.5 -0.393886241813306 0 -0.5 -0.36644851522156802 0 -0.48422759779560409 -0.37130120630367158 0 -0.48101336032419229 -0.41069999664450008 0 -0.5 -0.393886241813306 0 -0.47854472220918332 -0.38978458738689759 0 -0.48101336032419229 -0.41069999664450008 0 -0.47854472220918332 -0.38978458738689759 0 -0.46202672064839212 -0.40007602488395211 0 -0.48101336032419229 -0.41069999664450008 0 -0.46202672064839212 -0.40007602488395211 0 -0.47854472220918332 -0.38978458738689759 0 -0.46725442735267431 -0.37660061361585562 0 -0.46202672064839212 -0.40007602488395211 0 -0.47854472220918332 -0.38978458738689759 0 -0.46725442735267431 -0.37660061361585562 0 -0.48422759779560409 -0.37130120630367158 0 -0.46725442735267431 -0.37660061361585562 0 -0.46202672064839212 -0.40007602488395211 0 -0.46725442735267431 -0.37660061361585562 0 -0.45645674801697989 -0.38644133236760531 0 -0.46202672064839212 -0.40007602488395211 0 -0.46725442735267431 -0.37660061361585562 0 -0.45645674801697989 -0.38644133236760531 0 -0.4540003998136638 -0.37455519391687309 0 -0.45645674801697989 -0.38644133236760531 0 -0.46202672064839212 -0.40007602488395211 0 -0.44257020456291563 -0.38918913383950271 0 -0.46202672064839212 -0.40007602488395211 0 -0.44257020456291563 -0.38918913383950271 0 -0.44727608925983742 -0.41095911152778891 0 -0.46202672064839212 -0.40007602488395211 0 -0.44257020456291563 -0.38918913383950271 0 -0.44257020456291563 -0.38918913383950271 0 -0.44727608925983742 -0.41095911152778891 0 -0.43479358559901082 -0.4041454901736512 0 -0.44257020456291563 -0.38918913383950271 0 -0.4540003998136638 -0.37455519391687309 0 -0.44172858264042247 -0.37082207246888088 0 -0.45645674801697989 -0.38644133236760531 0 -0.44257020456291563 -0.38918913383950271 0 -0.4540003998136638 -0.37455519391687309 0 -0.46202672064839212 -0.40007602488395211 0 -0.45555437223955858 -0.42914059360647611 0 -0.44727608925983742 -0.41095911152778891 0 -0.46202672064839212 -0.40007602488395211 0 -0.45555437223955858 -0.42914059360647611 0 -0.48101336032419229 -0.41069999664450008 0 -0.46202672064839212 -0.40007602488395211 0 -0.45555437223955858 -0.42914059360647611 0 -0.44727608925983742 -0.41095911152778891 0 -0.43867285131603428 -0.4271457417558665 0 -0.43676601469929588 -0.41441201227470881 0 -0.44727608925983742 -0.41095911152778891 0 -0.43676601469929588 -0.41441201227470881 0 -0.43479358559901082 -0.4041454901736512 0 -0.45555437223955858 -0.42914059360647611 0 -0.44727608925983742 -0.41095911152778891 0 -0.43867285131603428 -0.4271457417558665 0 -0.43867285131603428 -0.4271457417558665 0 -0.42681803064840879 -0.42717069814352421 0 -0.4263356171060747 -0.44269880333887462 0 -0.42681803064840879 -0.42717069814352421 0 -0.41531815884496182 -0.42985383783075998 0 -0.4263356171060747 -0.44269880333887462 0 -0.42681803064840879 -0.42717069814352421 0 -0.42624289495594048 -0.42089725947505818 0 -0.42083332353326591 -0.42146747131641099 0 -0.42681803064840879 -0.42717069814352421 0 -0.43096994786351572 -0.41951492446283251 0 -0.42624289495594048 -0.42089725947505818 0 -0.43867285131603428 -0.4271457417558665 0 -0.42681803064840879 -0.42717069814352421 0 -0.43096994786351572 -0.41951492446283251 0 -0.43867285131603428 -0.4271457417558665 0 -0.43676601469929588 -0.41441201227470881 0 -0.43096994786351572 -0.41951492446283251 0 -0.43676601469929588 -0.41441201227470881 0 -0.43096994786351572 -0.41951492446283251 0 -0.42907264086257813 -0.41311715872526122 0 -0.43676601469929588 -0.41441201227470881 0 -0.42907264086257813 -0.41311715872526122 0 -0.43479358559901082 -0.4041454901736512 0 -0.42907264086257813 -0.41311715872526122 0 -0.43479358559901082 -0.4041454901736512 0 -0.42460885511582858 -0.40417321677700252 0 -0.42907264086257813 -0.41311715872526122 0 -0.41997834854398469 -0.41180534796019508 0 -0.42907264086257813 -0.41311715872526122 0 -0.42635027777857132 -0.41543594397746519 0 -0.41997834854398469 -0.41180534796019508 0 -0.42907264086257813 -0.41311715872526122 0 -0.41997834854398469 -0.41180534796019508 0 -0.42460885511582858 -0.40417321677700252 0 -0.42635027777857132 -0.41543594397746519 0 -0.41997834854398469 -0.41180534796019508 0 -0.42635027777857132 -0.41543594397746519 0 -0.42083332353326591 -0.42146747131641099 0 -0.41997834854398469 -0.41180534796019508 0 -0.43096994786351572 -0.41951492446283251 0 -0.42624289495594048 -0.42089725947505818 0 -0.42635027777857132 -0.41543594397746519 0 -0.43096994786351572 -0.41951492446283251 0 -0.42907264086257813 -0.41311715872526122 0 -0.42635027777857132 -0.41543594397746519 0 -0.42624289495594048 -0.42089725947505818 0 -0.42635027777857132 -0.41543594397746519 0 -0.42083332353326591 -0.42146747131641099 0 -0.42083332353326591 -0.42146747131641099 0 -0.41997834854398469 -0.41180534796019508 0 -0.40992282953163789 -0.42011435591993562 0 -0.41997834854398469 -0.41180534796019508 0 -0.39756877647335259 -0.40857286797681719 0 -0.41997834854398469 -0.41180534796019508 0 -0.40992282953163789 -0.42011435591993562 0 -0.39756877647335259 -0.40857286797681719 0 -0.40992282953163789 -0.42011435591993562 0 -0.41531815884496182 -0.42985383783075998 0 -0.39591554026262499 -0.42887225451549271 0 -0.41531815884496182 -0.42985383783075998 0 -0.39591554026262499 -0.42887225451549271 0 -0.41160927495564159 -0.44339431233754628 0 -0.42083332353326591 -0.42146747131641099 0 -0.40992282953163789 -0.42011435591993562 0 -0.41531815884496182 -0.42985383783075998 0 -0.42681803064840879 -0.42717069814352421 0 -0.42083332353326591 -0.42146747131641099 0 -0.41531815884496182 -0.42985383783075998 0 -0.44257020456291563 -0.38918913383950271 0 -0.42311368847744002 -0.37830224279505142 0 -0.42594061475171041 -0.39368797999533162 0 -0.44257020456291563 -0.38918913383950271 0 -0.42311368847744002 -0.37830224279505142 0 -0.44172858264042247 -0.37082207246888088 0 -0.44257020456291563 -0.38918913383950271 0 -0.42311368847744002 -0.37830224279505142 0 -0.42311368847744002 -0.37830224279505142 0 -0.42594061475171041 -0.39368797999533162 0 -0.416587075656149 -0.38785930376960043 0 -0.44257020456291563 -0.38918913383950271 0 -0.42594061475171041 -0.39368797999533162 0 -0.43479358559901082 -0.4041454901736512 0 -0.42594061475171041 -0.39368797999533162 0 -0.43479358559901082 -0.4041454901736512 0 -0.42460885511582858 -0.40417321677700252 0 -0.41997834854398469 -0.41180534796019508 0 -0.41325908582185972 -0.39811010703057192 0 -0.39770572831670092 -0.39911486077581648 0 -0.41997834854398469 -0.41180534796019508 0 -0.39770572831670092 -0.39911486077581648 0 -0.42594061475171041 -0.39368797999533162 0 -0.42460885511582858 -0.40417321677700252 0 -0.41325908582185972 -0.39811010703057192 0 -0.41997834854398469 -0.41180534796019508 0 -0.42460885511582858 -0.40417321677700252 0 -0.41325908582185972 -0.39811010703057192 0 -0.42594061475171041 -0.39368797999533162 0 -0.41325908582185972 -0.39811010703057192 0 -0.416587075656149 -0.38785930376960043 0 -0.41325908582185972 -0.39811010703057192 0 -0.416587075656149 -0.38785930376960043 0 -0.40403491357358612 -0.38133688525744702 0 -0.42311368847744002 -0.37830224279505142 0 -0.40403491357358612 -0.38133688525744702 0 -0.40365717239196519 -0.36741535175059892 0 -0.42311368847744002 -0.37830224279505142 0 -0.416587075656149 -0.38785930376960043 0 -0.40403491357358612 -0.38133688525744702 0 -0.40403491357358612 -0.38133688525744702 0 -0.39190790742475001 -0.38540387676521748 0 -0.39770572831670092 -0.39911486077581648 0 -0.40403491357358612 -0.38133688525744702 0 -0.39190790742475001 -0.38540387676521748 0 -0.3904578797192948 -0.37473938743617019 0 -0.41325908582185972 -0.39811010703057192 0 -0.40403491357358612 -0.38133688525744702 0 -0.39770572831670092 -0.39911486077581648 0 -0.39770572831670092 -0.39911486077581648 0 -0.37543310808941849 -0.38642437359143528 0 -0.39770572831670092 -0.39911486077581648 0 -0.37515920440272033 -0.40534038799344108 0 -0.37543310808941849 -0.38642437359143528 0 -0.39770572831670092 -0.39911486077581648 0 -0.37515920440272033 -0.40534038799344108 0 -0.39756877647335259 -0.40857286797681719
[...]
<PointData Scalars="" Vectors="displacement," Tensors="">
<DataArray type="Float64" Name="displacement" NumberOfComponents="3" format="ascii">
0.074994589268829598 0.074995776736442477 0 0.069920938857263679 0.073662860961013502 0 0.063221303976329316 0.074990006409687837 0 0.074994589268829598 0.074995776736442477 0 0.073803632120040485 0.072265105843283939 0 0.069920938857263679 0.073662860961013502 0 0.074994589268829598 0.074995776736442477 0 0.073803632120040485 0.072265105843283939 0 0.074995798304341152 0.067297069693357567 0 0.073803632120040485 0.072265105843283939 0 0.074995798304341152 0.067297069693357567 0 0.074258281157768766 0.071221214031785246 0 0.074995798304341152 0.067297069693357567 0 0.074258281157768766 0.071221214031785246 0 0.075238686841704969 0.065914267906601598 0 0.072755589286572983 0.073229123030963281 0 0.07246924226164847 0.073819602570290271 0 0.074258281157768766 0.071221214031785246 0 0.080686400233049183 0.071873008402685429 0 0.081188911627611979 0.068668257727887538 0 0.074258281157768766 0.071221214031785246 0 0.081188911627611979 0.068668257727887538 0 0.078494343049143586 0.066202292642188368 0 0.073803632120040485 0.072265105843283939 0 0.074258281157768766 0.071221214031785246 0 0.069920938857263679 0.073662860961013502 0 0.074258281157768766 0.071221214031785246 0 0.069920938857263679 0.073662860961013502 0 0.068238598327297159 0.074955718807479838 0 0.069920938857263679 0.073662860961013502 0 0.065072414914844084 0.074198820393129222 0 0.068238598327297159 0.074955718807479838 0 0.069920938857263679 0.073662860961013502 0 0.063221303976329316 0.074990006409687837 0 0.065072414914844084 0.074198820393129222 0 0.063198575293787904 0.074999991190438167 0 0.061603008795113406 0.077828975472336762 0 0.059082946657738653 0.074999987906411311 0 0.063200800972602209 0.075000960953361201 0 0.064221097041214398 0.075368573378657225 0 0.059082946657738653 0.074999987906411311 0 0.058473461047318709 0.078196177841559272 0 0.055700027604082929 0.077350345019335479 0 0.059082946657738653 0.074999987906411311 0 0.054967283256612487 0.074999985769378427 0 0.055700027604082929 0.077350345019335479 0 0.061603008795113406 0.077828975472336762 0 0.059082946657738653 0.074999987906411311 0 0.058473461047318709 0.078196177841559272 0 0.061603008795113406 0.077828975472336762 0 0.058473461047318709 0.078196177841559272 0 0.06002003353738803 0.080650664229471369 0 0.064221097041214398 0.075368573378657225 0 0.066424599593404562 0.074065069461881586 0 0.058473461047318709 0.078196177841559272 0 0.05649964262735932 0.079880597482242646 0 0.06002003353738803 0.080650664229471369 0 0.058473461047318709 0.078196177841559272 0 0.05649964262735932 0.079880597482242646 0 0.055700027604082929 0.077350345019335479 0 0.056948201210242848 0.075963461917380473 0 0.066424599593404562 0.074065069461881586 0 0.052224284916067683 0.079264166509780812 0 0.052078931582019219 0.079215228187464182 0 0.05197746511884372 0.079263291371994893 0 0.052224284916067683 0.079264166509780812 0 0.052078931582019219 0.079215228187464182 0 0.052103978727576765 0.079241926435437204 0 0.052078931582019219 0.079215228187464182 0 0.05197746511884372 0.079263291371994893 0 0.052004380424524911 0.079090347707753167 0 0.085192292092664559 0.072236758754109537 0 0.086472481117735145 0.0692366367367548 0 0.083625426311324899 0.07009444032661731 0 0.066424599593404562 0.074065069461881586 0 0.067052788752511597 0.072805831254105655 0 0.086472481117735145 0.0692366367367548 0 0.083625426311324899 0.07009444032661731 0 0.08454281488756768 0.068171911829461446 0 0.052004380424524911 0.079090347707753167 0 0.052103978727576765 0.079241926435437204 0 0.052108756585215403 0.07908410147931226 0 0.052078931582019219 0.079215228187464182 0 0.052004380424524911 0.079090347707753167 0 0.052103978727576765 0.079241926435437204 0 0.085192292092664559 0.072236758754109537 0 0.080686400233049183 0.071873008402685429 0 0.083625426311324899 0.07009444032661731 0 0.066424599593404562 0.074065069461881586 0 0.07246924226164847 0.073819602570290271 0 0.065072414914844084 0.074198820393129222 0 0.064745855069509431 0.075319943983701163 0 0.068238598327297159 0.074955718807479838 0 0.083625426311324899 0.07009444032661731 0 0.081188911627611979 0.068668257727887538 0 0.083155818647036958 0.068417480144743109 0 0.083625426311324899 0.07009444032661731 0 0.083155818647036958 0.068417480144743109 0 0.08454281488756768 0.068171911829461446 0 0.080686400233049183 0.071873008402685429 0 0.083625426311324899 0.07009444032661731 0 0.081188911627611979 0.068668257727887538 0 0.081188911627611979 0.068668257727887538 0 0.081118961736848932 0.066561605821439537 0 0.078494343049143586 0.066202292642188368 0 0.081118961736848932 0.066561605821439537 0 0.080659406016603846 0.064585388114568293 0 0.078494343049143586 0.066202292642188368 0 0.081118961736848932 0.066561605821439537 0 0.082147116362080344 0.066554940747890062 0 0.082042007644933121 0.0655849831510016 0 0.081118961736848932 0.066561605821439537 0 0.082383835590834828 0.06742331467404547 0 0.082147116362080344 0.066554940747890062 0 0.081188911627611979 0.068668257727887538 0 0.081118961736848932 0.066561605821439537 0 0.082383835590834828 0.06742331467404547 0 0.081188911627611979 0.068668257727887538 0 0.083155818647036958 0.068417480144743109 0 0.082383835590834828 0.06742331467404547 0 0.083155818647036958 0.068417480144743109 0 0.082383835590834828 0.06742331467404547 0 0.083448166501936233 0.067253194820216924 0 0.083155818647036958 0.068417480144743109 0 0.083448166501936233 0.067253194820216924 0 0.08454281488756768 0.068171911829461446 0 0.083448166501936233 0.067253194820216924 0 0.08454281488756768 0.068171911829461446 0 0.084521909921202315 0.066887660640370508 0 0.080698855101743613 0.062835283062787961 0 0.080655514147329771 0.062325309056325419 0 0.083448166501936233 0.067253194820216924 0 0.083045608785288896 0.06665242195189712 0 0.083816784356736701 0.065326386351428192 0 0.083448166501936233 0.067253194820216924 0 0.083702269896658146 0.066364473958286554 0 0.084521909921202315 0.066887660640370508 0 0.080646914052325339 0.062520931826379619 0 0.080655514147329771 0.062325309056325419 0 0.083045608785288896 0.06665242195189712 0 0.082042007644933121 0.0655849831510016 0 0.083686165576652524 0.065441157613478379 0 0.082383835590834828 0.06742331467404547 0 0.082147116362080344 0.066554940747890062 0 0.083045608785288896 0.06665242195189712 0 0.082383835590834828 0.06742331467404547 0 0.083448166501936233 0.067253194820216924 0 0.083045608785288896 0.06665242195189712 0 0.082147116362080344 0.066554940747890062 0 0.083045608785288896 0.06665242195189712 0 0.082042007644933121 0.0655849831510016 0 0.082042007644933121 0.0655849831510016 0 0.083686165576652524 0.065441157613478379 0 0.08227014973303759 0.063729117110808114 0 0.080655514147329771 0.062325309056325419 0 0.081159351192561041 0.059634389662394927 0 0.083686165576652524 0.065441157613478379 0 0.08227014973303759 0.063729117110808114 0 0.084151884101684116 0.061692926559354558 0 0.08227014973303759 0.063729117110808114 0 0.080659406016603846 0.064585388114568293 0 0.080850985662541897 0.061433384033616388 0 0.080659406016603846 0.064585388114568293 0 0.080850985662541897 0.061433384033616388 0 0.078529192785310856 0.063945047904954422 0 0.082042007644933121 0.0655849831510016 0 0.08227014973303759 0.063729117110808114 0 0.080659406016603846 0.064585388114568293 0 0.081118961736848932 0.066561605821439537 0 0.082042007644933121 0.0655849831510016 0 0.080659406016603846 0.064585388114568293 0 0.086472481117735145 0.0692366367367548 0 0.087320185634910188 0.06676678998579573 0 0.085728811883493752 0.067095330425144886 0 0.052004380424524911 0.079090347707753167 0 0.052026309729094458 0.078803438964389058 0 0.052108756585215403 0.07908410147931226 0 0.067052788752511597 0.072805831254105655 0 0.066999903089523916 0.070534970952059434 0 0.087320185634910188 0.06676678998579573 0 0.085728811883493752 0.067095330425144886 0 0.086270415588959093 0.066066117822268747 0 0.086472481117735145 0.0692366367367548 0 0.085728811883493752 0.067095330425144886 0 0.08454281488756768 0.068171911829461446 0 0.085728811883493752 0.067095330425144886 0 0.08454281488756768 0.068171911829461446 0 0.084521909921202315 0.066887660640370508 0 0.083702269896658146 0.066364473958286554 0 0.085201232014689099 0.065696922384926665 0 0.085147884041149341 0.06415786676420665 0 0.080655514147329771 0.062325309056325419 0 0.080171246979046165 0.059740490886198448 0 0.085728811883493752 0.067095330425144886 0 0.084521909921202315 0.066887660640370508 0 0.085201232014689099 0.065696922384926665 0 0.083702269896658146 0.066364473958286554 0 0.084521909921202315 0.066887660640370508 0 0.085201232014689099 0.065696922384926665 0 0.085728811883493752 0.067095330425144886 0 0.085201232014689099 0.065696922384926665 0 0.086270415588959093 0.066066117822268747 0 0.085201232014689099 0.065696922384926665 0 0.086270415588959093 0.066066117822268747 0 0.08682097099295541 0.064738860764992787 0 0.087320185634910188 0.06676678998579573 0 0.08682097099295541 0.064738860764992787 0 0.08826646614195717 0.064705149100869733 0 0.087320185634910188 0.06676678998579573 0 0.086270415588959093 0.066066117822268747 0 0.08682097099295541 0.064738860764992787 0 0.08682097099295541 0.064738860764992787 0 0.086384496142907705 0.063694706997148798 0 0.085147884041149341 0.06415786676420665 0 0.08682097099295541 0.064738860764992787 0 0.086384496142907705 0.063694706997148798 0 0.087245260331647173 0.063589092828162996 0 0.085201232014689099 0.065696922384926665 0 0.08682097099295541 0.064738860764992787 0 0.085147884041149341 0.06415786676420665 0 0.080171246979046165 0.059740490886198448 0 0.078350817232935896 0.055707249019165309 0 0.08076067158128708 0.058743161361361408 0 0.0801385332777175 0.056490030556737209 0 0.082016874005500576 0.056515642788400586 0 0.08076067158128708 0.058743161361361408 0 0.0801385332777175 0.056490030556737209 0 0.079817825900272588 0.058730863181555883 0 0.081422232286334092 0.055824258647783474 0 0.078350817232935896 0.055707249019165309 0 0.086297118938924264 0.062341481289873935 0 0.087245260331647173 0.063589092828162996 0 0.087646517437585128 0.062418777333397651 0 0.086384496142907705 0.063694706997148798 0 0.086297118938924264 0.062341481289873935 0 0.087245260331647173 0.063589092828162996 0 0.078350817232935896 0.055707249019165309 0 0.074167597608544411 0.057101493258708551 0 0.086384496142907705 0.063694706997148798 0 0.085147884041149341 0.06415786676420665 0 0.086297118938924264 0.062341481289873935 0 0.079500521634089535 0.06098100076443657 0 0.08076067158128708 0.058743161361361408 0 0.079817825900272588 0.058730863181555883 0 0.08227014973303759 0.063729117110808114 0 0.080850985662541897 0.061433384033616388 0 0.084151884101684116 0.061692926559354558 0 0.084658558835766354 0.058070453023143342 0 0.080850985662541897 0.061433384033616388 0 0.084151884101684116 0.061692926559354558 0 0.081422232286334092 0.055824258647783474 0 0.081159351192561041 0.059634389662394927 0 0.084658558835766354 0.058070453023143342 0 0.080850985662541897 0.061433384033616388 0 0.079798406565306207 0.058022658457437759 0 0.080850985662541897 0.061433384033616388 0 0.078024893216839655 0.060960687850102779 0 0.079798406565306207 0.058022658457437759 0 0.078024893216839655 0.060960687850102779 0 0.074990975164858559 0.05796107472988507 0 0.079798406565306207 0.058022658457437759 0 0.080850985662541897 0.061433384033616388 0 0.078024893216839655 0.060960687850102779 0 0.078529192785310856 0.063945047904954422 0 0.078024893216839655 0.060960687850102779 0 0.076271888848405522 0.06271074216137211 0 0.078529192785310856 0.063945047904954422 0 0.077218493589176929 0.062847018074032937 0 0.07628357435839131 0.060373454163543672 0 0.076237488443487156 0.063490755846991945 0 0.081218194846007022 0.060453912528493164 0 0.080639463106580558 0.058308491897788285 0 0.078142271630712079 0.058800831338531423 0 0.078606962210037282 0.059655047796277533 0 0.076901391911818079 0.058638314956448244 0 0.078606962210037282 0.059655047796277533 0 0.078608774819591484 0.059685461125686658 0 0.078606962210037282 0.059655047796277533 0 0.078615586679279675 0.058432898953072902 0 0.078024893216839655 0.060960687850102779 0 0.076271888848405522 0.06271074216137211 0 0.075632019908134313 0.060334987323575499 0 0.078024893216839655 0.060960687850102779 0 0.075632019908134313 0.060334987323575499 0 0.074990975164858559 0.05796107472988507 0 0.078615586679279675 0.058432898953072902 0 0.078589700741709595 0.056565163044866376 0 0.080639463106580558 0.058308491897788285 0 0.079185314812601285 0.057530870618646791 0 0.080060131437949544 0.056146999479465137 0 0.079185314812601285 0.057530870618646791 0 0.078142271630712079 0.058800831338531423 0 0.078353885607755067 0.05611263376491938 0 0.078142271630712079 0.058800831338531423 0 0.076520862944484 0.055858416902751687 0 0.078353885607755067 0.05611263376491938 0 0.079185314812601285 0.057530870618646791 0 0.078353885607755067 0.05611263376491938 0 0.080060131437949544 0.056146999479465137 0 0.080639463106580558 0.058308491897788285 0 0.079185314812601285 0.057530870618646791 0 0.078142271630712079 0.058800831338531423 0 0.075001417399700343 0.0571439224668156 0 0.076901391911818079 0.058638314956448244 0 0.075000006984322021 0.05714198322086838 0 0.078142271630712079 0.058800831338531423 0 0.076520862944484 0.055858416902751687 0 0.074999750710062429 0.057144636161516639 0 0.07628357435839131 0.060373454163543672 0 0.074998139609238804 0.06149803443232791 0 0.07628357435839131 0.060373454163543672 0 0.076237488443487156 0.063490755846991945 0 0.074998139609238804 0.06149803443232791 0 0.076237488443487156 0.063490755846991945 0 0.074998139609238804 0.06149803443232791 0 0.075238686841704969 0.065914267906601598 0 0.074995798304341152 0.067297069693357567 0 0.074998139609238804 0.06149803443232791 0 0.075238686841704969 0.065914267906601598 0 0.076237488443487156 0.063490755846991945 0 0.075238686841704969 0.065914267906601598 0 0.076097781605473647 0.066088090213823239 0 0.074258281157768766 0.071221214031785246 0 0.075238686841704969 0.065914267906601598 0 0.076097781605473647 0.066088090213823239 0 0.074258281157768766 0.071221214031785246 0 0.076097781605473647 0.066088090213823239 0 0.078494343049143586 0.066202292642188368 0 0.076097781605473647 0.066088090213823239 0 0.078494343049143586 0.066202292642188368 0 0.077229126490641176 0.0645201134368142 0 0.078494343049143586 0.066202292642188368 0 0.078529192785310856 0.063945047904954422 0 0.077229126490641176 0.0645201134368142 0 0.080659406016603846 0.064585388114568293 0 0.078494343049143586 0.066202292642188368 0 0.078529192785310856 0.063945047904954422 0 0.07713828036585603 0.062861933259664993 0 0.078529192785310856 0.063945047904954422 0 0.077200929510440441 0.063157663541737047 0 0.078529192785310856 0.063945047904954422 0 0.077200929510440441 0.063157663541737047 0 0.077229126490641176 0.0645201134368142 0 0.078606962210037282 0.059655047796277533 0 0.078760646271502158 0.060150931540152469 0 0.076237488443487156 0.063490755846991945 0 0.077200929510440441 0.063157663541737047 0 0.077229126490641176 0.0645201134368142 0 0.077218493589176929 0.062847018074032937 0 0.076237488443487156 0.063490755846991945 0 0.077200929510440441 0.063157663541737047 0 0.076237488443487156 0.063490755846991945 0 0.076097781605473647 0.066088090213823239 0 0.077229126490641176 0.0645201134368142 0 0.032077673648806454 0.078646004465629124 0 0.0286884804610326 0.074502554039939217 0 0.037739284500736298 0.080959314921307049 0 0.037533572468739125 0.085488854423350996 0 0.03513021214002842 0.082030649667826652 0 0.041213886206554806 0.082028761249654372 0 0.038378831701323869 0.081088864101590497 0 0.038136513467468353 0.084285312550830563 0 0.041213886206554806 0.082028761249654372 0 0.04105879553933147 0.084808846834572765 0 0.038136513467468353 0.084285312550830563 0 0.041213886206554806 0.082028761249654372 0 0.043796877257020098 0.083230638637392496 0 0.04105879553933147 0.084808846834572765 0 0.041213886206554806 0.082028761249654372 0 0.040136161351976632 0.079564207547313345 0 0.042380825693642536 0.079284830479379884 0 0.041213886206554806 0.082028761249654372 0 0.040136161351976632 0.079564207547313345 0 0.038378831701323869 0.081088864101590497 0 0.032077673648806454 0.078646004465629124 0 0.033184492361064202 0.078478858659261005 0 0.040136161351976632 0.079564207547313345 0 0.038378831701323869 0.081088864101590497 0 0.03844997281762718 0.077742059069591293 0 0.037739284500736298 0.080959314921307049 0 0.03844997281762718 0.077742059069591293 0 0.034623860140891576 0.078531948990533715 0 0.03844997281762718 0.077742059069591293 0 0.03850428381860798 0.074999331248817636 0 0.041035730430875043 0.077189060767902537 0 0.03844997281762718 0.077742059069591293 0 0.03850428381860798 0.074999331248817636 0 0.035991599442054503 0.076449324600159685 0 0.03850428381860798 0.074999331248817636 0 0.041035730430875043 0.077189060767902537 0 0.042620188949629864 0.074999906693462001 0 0.040136161351976632 0.079564207547313345 0 0.03844997281762718 0.077742059069591293 0 0.041035730430875043 0.077189060767902537 0 0.040136161351976632 0.079564207547313345 0 0.041035730430875043 0.077189060767902537 0 0.042380825693642536 0.079284830479379884 0 0.042380825693642536 0.079284830479379884 0 0.043729569948731645 0.076962508677618932 0 0.044682641757204732 0.078934092482385407 0 0.041035730430875043 0.077189060767902537 0 0.042380825693642536 0.079284830479379884 0 0.043729569948731645 0.076962508677618932 0 0.042620188949629864 0.074999906693462001 0 0.043729569948731645 0.076962508677618932 0 0.04673579578718326 0.074999875300236121 0 0.041035730430875043 0.077189060767902537 0 0.042620188949629864 0.074999906693462001 0 0.043729569948731645 0.076962508677618932 0 0.043729569948731645 0.076962508677618932 0 0.04673579578718326 0.074999875300236121 0 0.045841038943415589 0.077407310207519259 0 0.045841038943415589 0.077407310207519259 0 0.044682641757204732 0.078934092482385407 0 0.047060449337216051 0.078842657428333976 0 0.043729569948731645 0.076962508677618932 0 0.045841038943415589 0.077407310207519259 0 0.044682641757204732 0.078934092482385407 0 0.044682641757204732 0.078934092482385407 0 0.045852861992118757 0.080389677970587672 0 0.047060449337216051 0.078842657428333976 0 0.045852861992118757 0.080389677970587672 0 0.045385551737200623 0.082331561733084493 0 0.046901483330214398 0.081581700596496859 0 0.045852861992118757 0.080389677970587672 0 0.043839699383682477 0.08101927463110857 0 0.045385551737200623 0.082331561733084493 0 0.044682641757204732 0.078934092482385407 0 0.045852861992118757 0.080389677970587672 0 0.043839699383682477 0.08101927463110857 0 0.041213886206554806 0.082028761249654372 0 0.042380825693642536 0.079284830479379884 0 0.043839699383682477 0.08101927463110857 0 0.042380825693642536 0.079284830479379884 0 0.044682641757204732 0.078934092482385407 0 0.043839699383682477 0.08101927463110857 0 0.041213886206554806 0.082028761249654372 0 0.043839699383682477 0.08101927463110857 0 0.043796877257020098 0.083230638637392496 0 0.043839699383682477 0.08101927463110857 0 0.043796877257020098 0.083230638637392496 0 0.045385551737200623 0.082331561733084493 0 0.043796877257020098 0.083230638637392496 0 0.045385551737200623 0.082331561733084493 0 0.045474443815897533 0.084070525242688904 0 0.045385551737200623 0.082331561733084493 0 0.047534527792745244 0.083341607459592973 0 0.045474443815897533 0.084070525242688904 0 0.045385551737200623 0.082331561733084493 0 0.046901483330214398 0.081581700596496859 0 0.047534527792745244 0.083341607459592973 0 0.043042285451015738 0.077788400163276011 0 0.043515731912361383 0.078565787327110004 0 0.047617919628392125 0.083039168743990366 0 0.049815476855100