<?xml version="1.0"?>
<VTKFile type="UnstructuredGrid" version="0.1" byte_order="LittleEndian">
<UnstructuredGrid>
<Piece NumberOfPoints="31898" NumberOfCells="11152">
<Points>
<DataArray type="Float64" NumberOfComponents="3" format="ascii">
-0.5 -0.5 0 -0.47620991077874902 -0.44978878706170539 0 -0.49999999999999473 -0.42132396840504388 0 -0.5 -0.5 0 -0.47160970827802529 -0.4793630013852106 0 -0.47620991077874902 -0.44978878706170539 0 -0.5 -0.5 0 -0.47160970827802529 -0.4793630013852106 0 -0.44860394795025399 -0.5 0 -0.47160970827802529 -0.4793630013852106 0 -0.44860394795025399 -0.5 0 -0.4490820238307246 -0.45820516232899983 0 -0.44860394795025399 -0.5 0 -0.4490820238307246 -0.45820516232899983 0 -0.42881687682924802 -0.47781464288736519 0 -0.4490820238307246 -0.45820516232899983 0 -0.45555437223955858 -0.42914059360647611 0 -0.4490820238307246 -0.45820516232899983 0 -0.45555437223955858 -0.42914059360647611 0 -0.43867285131603428 -0.4271457417558665 0 -0.4490820238307246 -0.45820516232899983 0 -0.43867285131603428 -0.4271457417558665 0 -0.4263356171060747 -0.44269880333887462 0 -0.47160970827802529 -0.4793630013852106 0 -0.4490820238307246 -0.45820516232899983 0 -0.47620991077874902 -0.44978878706170539 0 -0.4490820238307246 -0.45820516232899983 0 -0.47620991077874902 -0.44978878706170539 0 -0.45555437223955858 -0.42914059360647611 0 -0.47620991077874902 -0.44978878706170539 0 -0.48101336032419229 -0.41069999664450008 0 -0.45555437223955858 -0.42914059360647611 0 -0.47620991077874902 -0.44978878706170539 0 -0.49999999999999473 -0.42132396840504388 0 -0.48101336032419229 -0.41069999664450008 0 -0.49999999999999473 -0.42132396840504388 0 -0.48101336032419229 -0.41069999664450008 0 -0.5 -0.393886241813306 0 -0.49999999999999473 -0.42132396840504388 0 -0.48101336032419229 -0.41069999664450008 0 -0.5 -0.393886241813306 0 -0.47854472220918332 -0.38978458738689759 0 -0.48422759779560409 -0.37130120630367158 0 -0.5 -0.393886241813306 0 -0.5 -0.36644851522156802 0 -0.48422759779560409 -0.37130120630367158 0 -0.48101336032419229 -0.41069999664450008 0 -0.5 -0.393886241813306 0 -0.47854472220918332 -0.38978458738689759 0 -0.48101336032419229 -0.41069999664450008 0 -0.47854472220918332 -0.38978458738689759 0 -0.46202672064839212 -0.40007602488395211 0 -0.48101336032419229 -0.41069999664450008 0 -0.46202672064839212 -0.40007602488395211 0 -0.47854472220918332 -0.38978458738689759 0 -0.46725442735267431 -0.37660061361585562 0 -0.46202672064839212 -0.40007602488395211 0 -0.47854472220918332 -0.38978458738689759 0 -0.46725442735267431 -0.37660061361585562 0 -0.48422759779560409 -0.37130120630367158 0 -0.46725442735267431 -0.37660061361585562 0 -0.46202672064839212 -0.40007602488395211 0 -0.46725442735267431 -0.37660061361585562 0 -0.45645674801697989 -0.38644133236760531 0 -0.46202672064839212 -0.40007602488395211 0 -0.46725442735267431 -0.37660061361585562 0 -0.45645674801697989 -0.38644133236760531 0 -0.4540003998136638 -0.37455519391687309 0 -0.45645674801697989 -0.38644133236760531 0 -0.46202672064839212 -0.40007602488395211 0 -0.44257020456291563 -0.38918913383950271 0 -0.46202672064839212 -0.40007602488395211 0 -0.44257020456291563 -0.38918913383950271 0 -0.44727608925983742 -0.41095911152778891 0 -0.46202672064839212 -0.40007602488395211 0 -0.44257020456291563 -0.38918913383950271 0 -0.44257020456291563 -0.38918913383950271 0 -0.44727608925983742 -0.41095911152778891 0 -0.43479358559901082 -0.4041454901736512 0 -0.44257020456291563 -0.38918913383950271 0 -0.4540003998136638 -0.37455519391687309 0 -0.44172858264042247 -0.37082207246888088 0 -0.45645674801697989 -0.38644133236760531 0 -0.44257020456291563 -0.38918913383950271 0 -0.4540003998136638 -0.37455519391687309 0 -0.46202672064839212 -0.40007602488395211 0 -0.45555437223955858 -0.42914059360647611 0 -0.44727608925983742 -0.41095911152778891 0 -0.46202672064839212 -0.40007602488395211 0 -0.45555437223955858 -0.42914059360647611 0 -0.48101336032419229 -0.41069999664450008 0 -0.46202672064839212 -0.40007602488395211 0 -0.45555437223955858 -0.42914059360647611 0 -0.44727608925983742 -0.41095911152778891 0 -0.43867285131603428 -0.4271457417558665 0 -0.43676601469929588 -0.41441201227470881 0 -0.44727608925983742 -0.41095911152778891 0 -0.43676601469929588 -0.41441201227470881 0 -0.43479358559901082 -0.4041454901736512 0 -0.45555437223955858 -0.42914059360647611 0 -0.44727608925983742 -0.41095911152778891 0 -0.43867285131603428 -0.4271457417558665 0 -0.43867285131603428 -0.4271457417558665 0 -0.42681803064840879 -0.42717069814352421 0 -0.4263356171060747 -0.44269880333887462 0 -0.42681803064840879 -0.42717069814352421 0 -0.41531815884496182 -0.42985383783075998 0 -0.4263356171060747 -0.44269880333887462 0 -0.42681803064840879 -0.42717069814352421 0 -0.42624289495594048 -0.42089725947505818 0 -0.42083332353326591 -0.42146747131641099 0 -0.42681803064840879 -0.42717069814352421 0 -0.43096994786351572 -0.41951492446283251 0 -0.42624289495594048 -0.42089725947505818 0 -0.43867285131603428 -0.4271457417558665 0 -0.42681803064840879 -0.42717069814352421 0 -0.43096994786351572 -0.41951492446283251 0 -0.43867285131603428 -0.4271457417558665 0 -0.43676601469929588 -0.41441201227470881 0 -0.43096994786351572 -0.41951492446283251 0 -0.43676601469929588 -0.41441201227470881 0 -0.43096994786351572 -0.41951492446283251 0 -0.42907264086257813 -0.41311715872526122 0 -0.43676601469929588 -0.41441201227470881 0 -0.42907264086257813 -0.41311715872526122 0 -0.43479358559901082 -0.4041454901736512 0 -0.42907264086257813 -0.41311715872526122 0 -0.43479358559901082 -0.4041454901736512 0 -0.42460885511582858 -0.40417321677700252 0 -0.42907264086257813 -0.41311715872526122 0 -0.41997834854398469 -0.41180534796019508 0 -0.42907264086257813 -0.41311715872526122 0 -0.42635027777857132 -0.41543594397746519 0 -0.41997834854398469 -0.41180534796019508 0 -0.42907264086257813 -0.41311715872526122 0 -0.41997834854398469 -0.41180534796019508 0 -0.42460885511582858 -0.40417321677700252 0 -0.42635027777857132 -0.41543594397746519 0 -0.41997834854398469 -0.41180534796019508 0 -0.42635027777857132 -0.41543594397746519 0 -0.42083332353326591 -0.42146747131641099 0 -0.41997834854398469 -0.41180534796019508 0 -0.43096994786351572 -0.41951492446283251 0 -0.42624289495594048 -0.42089725947505818 0 -0.42635027777857132 -0.41543594397746519 0 -0.43096994786351572 -0.41951492446283251 0 -0.42907264086257813 -0.41311715872526122 0 -0.42635027777857132 -0.41543594397746519 0 -0.42624289495594048 -0.42089725947505818 0 -0.42635027777857132 -0.41543594397746519 0 -0.42083332353326591 -0.42146747131641099 0 -0.42083332353326591 -0.42146747131641099 0 -0.41997834854398469 -0.41180534796019508 0 -0.40992282953163789 -0.42011435591993562 0 -0.41997834854398469 -0.41180534796019508 0 -0.39756877647335259 -0.40857286797681719 0 -0.41997834854398469 -0.41180534796019508 0 -0.40992282953163789 -0.42011435591993562 0 -0.39756877647335259 -0.40857286797681719 0 -0.40992282953163789 -0.42011435591993562 0 -0.41531815884496182 -0.42985383783075998 0 -0.39591554026262499 -0.42887225451549271 0 -0.41531815884496182 -0.42985383783075998 0 -0.39591554026262499 -0.42887225451549271 0 -0.41160927495564159 -0.44339431233754628 0 -0.42083332353326591 -0.42146747131641099 0 -0.40992282953163789 -0.42011435591993562 0 -0.41531815884496182 -0.42985383783075998 0 -0.42681803064840879 -0.42717069814352421 0 -0.42083332353326591 -0.42146747131641099 0 -0.41531815884496182 -0.42985383783075998 0 -0.44257020456291563 -0.38918913383950271 0 -0.42311368847744002 -0.37830224279505142 0 -0.42594061475171041 -0.39368797999533162 0 -0.44257020456291563 -0.38918913383950271 0 -0.42311368847744002 -0.37830224279505142 0 -0.44172858264042247 -0.37082207246888088 0 -0.44257020456291563 -0.38918913383950271 0 -0.42311368847744002 -0.37830224279505142 0 -0.42311368847744002 -0.37830224279505142 0 -0.42594061475171041 -0.39368797999533162 0 -0.416587075656149 -0.38785930376960043 0 -0.44257020456291563 -0.38918913383950271 0 -0.42594061475171041 -0.39368797999533162 0 -0.43479358559901082 -0.4041454901736512 0 -0.42594061475171041 -0.39368797999533162 0 -0.43479358559901082 -0.4041454901736512 0 -0.42460885511582858 -0.40417321677700252 0 -0.41997834854398469 -0.41180534796019508 0 -0.41325908582185972 -0.39811010703057192 0 -0.39770572831670092 -0.39911486077581648 0 -0.41997834854398469 -0.41180534796019508 0 -0.39770572831670092 -0.39911486077581648 0 -0.42594061475171041 -0.39368797999533162 0 -0.42460885511582858 -0.40417321677700252 0 -0.41325908582185972 -0.39811010703057192 0 -0.41997834854398469 -0.41180534796019508 0 -0.42460885511582858 -0.40417321677700252 0 -0.41325908582185972 -0.39811010703057192 0 -0.42594061475171041 -0.39368797999533162 0 -0.41325908582185972 -0.39811010703057192 0 -0.416587075656149 -0.38785930376960043 0 -0.41325908582185972 -0.39811010703057192 0 -0.416587075656149 -0.38785930376960043 0 -0.40403491357358612 -0.38133688525744702 0 -0.42311368847744002 -0.37830224279505142 0 -0.40403491357358612 -0.38133688525744702 0 -0.40365717239196519 -0.36741535175059892 0 -0.42311368847744002 -0.37830224279505142 0 -0.416587075656149 -0.38785930376960043 0 -0.40403491357358612 -0.38133688525744702 0 -0.40403491357358612 -0.38133688525744702 0 -0.39190790742475001 -0.38540387676521748 0 -0.39770572831670092 -0.39911486077581648 0 -0.40403491357358612 -0.38133688525744702 0 -0.39190790742475001 -0.38540387676521748 0 -0.3904578797192948 -0.37473938743617019 0 -0.41325908582185972 -0.39811010703057192 0 -0.40403491357358612 -0.38133688525744702 0 -0.39770572831670092 -0.39911486077581648 0 -0.39770572831670092 -0.39911486077581648 0 -0.37543310808941849 -0.38642437359143528 0 -0.39770572831670092 -0.39911486077581648 0 -0.37515920440272033 -0.40534038799344108 0 -0.37543310808941849 -0.38642437359143528 0 -0.39770572831670092 -0.39911486077581648 0 -0.37515920440272033 -0.40534038799344108 0 -0.39756877647335259 -0.40857286797681719
[...]
<PointData Scalars="" Vectors="displacement," Tensors="">
<DataArray type="Float64" Name="displacement" NumberOfComponents="3" format="ascii">
3.6434406416443711e-06 0.074993142481092942 0 0.00036548258444082682 0.070119497672595399 0 -7.7111100095455078e-06 0.063216079653985582 0 3.6434406416443711e-06 0.074993142481092942 0 0.00033686153819819113 0.073288131366288853 0 0.00036548258444082682 0.070119497672595399 0 3.6434406416443711e-06 0.074993142481092942 0 0.00033686153819819113 0.073288131366288853 0 -1.2360009259931901e-08 0.074998170663448688 0 0.00033686153819819113 0.073288131366288853 0 -1.2360009259931901e-08 0.074998170663448688 0 0.00018697651538658063 0.073290967807879706 0 -1.2360009259931901e-08 0.074998170663448688 0 0.00018697651538658063 0.073290967807879706 0 0.00014691463232947388 0.074497269182225032 0 0.00064468829251105339 0.068702163020319951 0 -1.5973625883743956e-05 0.066752674305314619 0 0.00018697651538658063 0.073290967807879706 0 -0.00083433408206390694 0.073231359166221463 0 -0.00090018174326556434 0.073644001373340498 0 0.00018697651538658063 0.073290967807879706 0 -0.00090018174326556434 0.073644001373340498 0 -0.00044041962448127561 0.07411266269996758 0 0.00033686153819819113 0.073288131366288853 0 0.00018697651538658063 0.073290967807879706 0 0.00036548258444082682 0.070119497672595399 0 0.00018697651538658063 0.073290967807879706 0 0.00036548258444082682 0.070119497672595399 0 -0.001335650069190992 0.071527014835625999 0 0.00036548258444082682 0.070119497672595399 0 -0.002838624851878243 0.067767873613439486 0 -0.001335650069190992 0.071527014835625999 0 0.00036548258444082682 0.070119497672595399 0 -7.7111100095455078e-06 0.063216079653985582 0 -0.002838624851878243 0.067767873613439486 0 -4.243487332863276e-06 0.063192114787515852 0 -0.00064557027646678299 0.058273227521634087 0 1.7907842473494371e-06 0.059082958485930551 0 -2.607704436965726e-06 0.063196155087152373 0 -0.0010975782762827763 0.062076177541224131 0 1.7907842473494371e-06 0.059082958485930551 0 0.00017022392368450971 0.056761918175974521 0 0.00035921522949297451 0.055246054483206943 0 1.7907842473494371e-06 0.059082958485930551 0 5.4629992552677128e-07 0.054966800495259913 0 0.00035921522949297451 0.055246054483206943 0 -0.00064557027646678299 0.058273227521634087 0 1.7907842473494371e-06 0.059082958485930551 0 0.00017022392368450971 0.056761918175974521 0 -0.00064557027646678299 0.058273227521634087 0 0.00017022392368450971 0.056761918175974521 0 -0.00028305112272139992 0.05620860527151729 0 -0.0010975782762827763 0.062076177541224131 0 -0.001601170338368312 0.059817714441815543 0 0.00017022392368450971 0.056761918175974521 0 0.00044211772220629017 0.055721561817902561 0 -0.00028305112272139992 0.05620860527151729 0 0.00017022392368450971 0.056761918175974521 0 0.00044211772220629017 0.055721561817902561 0 0.00035921522949297451 0.055246054483206943 0 -0.0011308224945561737 0.054326237228433334 0 -0.001601170338368312 0.059817714441815543 0 -0.0016049767961588263 0.043705502851062346 0 -0.0010132553822274363 0.044306842422915646 0 -0.00024222991712756004 0.044011630671941082 0 -0.0016049767961588263 0.043705502851062346 0 -0.0010132553822274363 0.044306842422915646 0 -0.0016477916487604811 0.04440929634353942 0 -0.0010132553822274363 0.044306842422915646 0 -0.00024222991712756004 0.044011630671941082 0 -0.00083736147945878843 0.045086632940442087 0 -0.0011861045404849956 0.073389570118735314 0 -0.0010451641678492299 0.073572128672083417 0 -0.0011260979603812647 0.073488745229582653 0 -0.001601170338368312 0.059817714441815543 0 -0.00133766144052983 0.059206784098409612 0 -0.0010451641678492299 0.073572128672083417 0 -0.0011260979603812647 0.073488745229582653 0 -0.0011490182689094033 0.073561459737550683 0 -0.00083736147945878843 0.045086632940442087 0 -0.0016477916487604811 0.04440929634353942 0 -0.0018395145235347717 0.045114147539804625 0 -0.0010132553822274363 0.044306842422915646 0 -0.00083736147945878843 0.045086632940442087 0 -0.0016477916487604811 0.04440929634353942 0 -0.0011861045404849956 0.073389570118735314 0 -0.00083433408206390694 0.073231359166221463 0 -0.0011260979603812647 0.073488745229582653 0 -0.001601170338368312 0.059817714441815543 0 -1.5973625883743956e-05 0.066752674305314619 0 -0.002838624851878243 0.067767873613439486 0 -0.0043811601039182337 0.070281264686334791 0 -0.001335650069190992 0.071527014835625999 0 -0.0011260979603812647 0.073488745229582653 0 -0.00090018174326556434 0.073644001373340498 0 -0.001135895093876305 0.073612569624139437 0 -0.0011260979603812647 0.073488745229582653 0 -0.001135895093876305 0.073612569624139437 0 -0.0011490182689094033 0.073561459737550683 0 -0.00083433408206390694 0.073231359166221463 0 -0.0011260979603812647 0.073488745229582653 0 -0.00090018174326556434 0.073644001373340498 0 -0.00090018174326556434 0.073644001373340498 0 -0.00086081223710500812 0.073963711001412247 0 -0.00044041962448127561 0.07411266269996758 0 -0.00086081223710500812 0.073963711001412247 0 -0.00077591475070730486 0.074325617506546329 0 -0.00044041962448127561 0.07411266269996758 0 -0.00086081223710500812 0.073963711001412247 0 -0.0010224036334112788 0.073919057600830743 0 -0.0010009208952928147 0.074114172814643178 0 -0.00086081223710500812 0.073963711001412247 0 -0.0010608095311590996 0.073750989837859257 0 -0.0010224036334112788 0.073919057600830743 0 -0.00090018174326556434 0.073644001373340498 0 -0.00086081223710500812 0.073963711001412247 0 -0.0010608095311590996 0.073750989837859257 0 -0.00090018174326556434 0.073644001373340498 0 -0.001135895093876305 0.073612569624139437 0 -0.0010608095311590996 0.073750989837859257 0 -0.001135895093876305 0.073612569624139437 0 -0.0010608095311590996 0.073750989837859257 0 -0.0012578143659042677 0.073659321930543281 0 -0.001135895093876305 0.073612569624139437 0 -0.0012578143659042677 0.073659321930543281 0 -0.0011490182689094033 0.073561459737550683 0 -0.0012578143659042677 0.073659321930543281 0 -0.0011490182689094033 0.073561459737550683 0 -0.0011671643753598463 0.073413711789007394 0 -0.0025941910493942101 0.072115070333491474 0 -0.0026185573259140103 0.071924176361023745 0 -0.0012578143659042677 0.073659321930543281 0 -0.0011709460091279468 0.073852549996732353 0 -0.0014087219550036052 0.074235985394960555 0 -0.0012578143659042677 0.073659321930543281 0 -0.001375308931906233 0.073298587991379144 0 -0.0011671643753598463 0.073413711789007394 0 -0.0026200710839577568 0.072021674463898344 0 -0.0026185573259140103 0.071924176361023745 0 -0.0011709460091279468 0.073852549996732353 0 -0.0010009208952928147 0.074114172814643178 0 -0.0013027619932456458 0.074134250099380197 0 -0.0010608095311590996 0.073750989837859257 0 -0.0010224036334112788 0.073919057600830743 0 -0.0011709460091279468 0.073852549996732353 0 -0.0010608095311590996 0.073750989837859257 0 -0.0012578143659042677 0.073659321930543281 0 -0.0011709460091279468 0.073852549996732353 0 -0.0010224036334112788 0.073919057600830743 0 -0.0011709460091279468 0.073852549996732353 0 -0.0010009208952928147 0.074114172814643178 0 -0.0010009208952928147 0.074114172814643178 0 -0.0013027619932456458 0.074134250099380197 0 -0.0010422480484641894 0.074449212743801299 0 -0.0026185573259140103 0.071924176361023745 0 -0.0021602187525206003 0.071503957325463385 0 -0.0013027619932456458 0.074134250099380197 0 -0.0010422480484641894 0.074449212743801299 0 -0.0013511966129318577 0.074786127262546409 0 -0.0010422480484641894 0.074449212743801299 0 -0.00077591475070730486 0.074325617506546329 0 -0.00080657613485408128 0.074835174664110424 0 -0.00077591475070730486 0.074325617506546329 0 -0.00080657613485408128 0.074835174664110424 0 -0.0004291917630197955 0.074481658535480472 0 -0.0010009208952928147 0.074114172814643178 0 -0.0010422480484641894 0.074449212743801299 0 -0.00077591475070730486 0.074325617506546329 0 -0.00086081223710500812 0.073963711001412247 0 -0.0010009208952928147 0.074114172814643178 0 -0.00077591475070730486 0.074325617506546329 0 -0.0010451641678492299 0.073572128672083417 0 -0.00058391931738909658 0.073287248974829203 0 -0.0009857591457258228 0.073379760556710583 0 -0.00083736147945878843 0.045086632940442087 0 -0.0014103133685186154 0.046201126507129861 0 -0.0018395145235347717 0.045114147539804625 0 -0.00133766144052983 0.059206784098409612 0 -0.0014299563785981476 0.058871269606178132 0 -0.00058391931738909658 0.073287248974829203 0 -0.0009857591457258228 0.073379760556710583 0 -0.00081286648578085465 0.073110992425776483 0 -0.0010451641678492299 0.073572128672083417 0 -0.0009857591457258228 0.073379760556710583 0 -0.0011490182689094033 0.073561459737550683 0 -0.0009857591457258228 0.073379760556710583 0 -0.0011490182689094033 0.073561459737550683 0 -0.0011671643753598463 0.073413711789007394 0 -0.001375308931906233 0.073298587991379144 0 -0.0010785928135836093 0.07304353058091255 0 -0.0011718109340526648 0.072509302121797389 0 -0.0026185573259140103 0.071924176361023745 0 -0.0027220769621722676 0.069688724185284295 0 -0.0009857591457258228 0.073379760556710583 0 -0.0011671643753598463 0.073413711789007394 0 -0.0010785928135836093 0.07304353058091255 0 -0.001375308931906233 0.073298587991379144 0 -0.0011671643753598463 0.073413711789007394 0 -0.0010785928135836093 0.07304353058091255 0 -0.0009857591457258228 0.073379760556710583 0 -0.0010785928135836093 0.07304353058091255 0 -0.00081286648578085465 0.073110992425776483 0 -0.0010785928135836093 0.07304353058091255 0 -0.00081286648578085465 0.073110992425776483 0 -0.00059270992183388111 0.072712255540458237 0 -0.00058391931738909658 0.073287248974829203 0 -0.00059270992183388111 0.072712255540458237 0 -0.00018282732258028284 0.072678476741109055 0 -0.00058391931738909658 0.073287248974829203 0 -0.00081286648578085465 0.073110992425776483 0 -0.00059270992183388111 0.072712255540458237 0 -0.00059270992183388111 0.072712255540458237 0 -0.00071264345479012017 0.072252208308964949 0 -0.0011718109340526648 0.072509302121797389 0 -0.00059270992183388111 0.072712255540458237 0 -0.00071264345479012017 0.072252208308964949 0 -0.00030852622183863589 0.072172824508996383 0 -0.0010785928135836093 0.07304353058091255 0 -0.00059270992183388111 0.072712255540458237 0 -0.0011718109340526648 0.072509302121797389 0 -0.0027220769621722676 0.069688724185284295 0 -0.0024257226083227923 0.065120127837902525 0 -0.0025874683205615655 0.069535443573528144 0 -0.0030865377767192777 0.067721260101170341 0 -0.0015694030985623957 0.06773855679513538 0 -0.0025874683205615655 0.069535443573528144 0 -0.0030865377767192777 0.067721260101170341 0 -0.0033475525133375211 0.06952602403939645 0 -0.0014472964354549736 0.069617839508452198 0 -0.0024257226083227923 0.065120127837902525 0 -0.000765608455920151 0.071594308801603931 0 -0.00030852622183863589 0.072172824508996383 0 -8.8029267250845945e-05 0.071569062675284706 0 -0.00071264345479012017 0.072252208308964949 0 -0.000765608455920151 0.071594308801603931 0 -0.00030852622183863589 0.072172824508996383 0 -0.0024257226083227923 0.065120127837902525 0 -0.0016158144064069885 0.061104153474687645 0 -0.00071264345479012017 0.072252208308964949 0 -0.0011718109340526648 0.072509302121797389 0 -0.000765608455920151 0.071594308801603931 0 -0.0036067560682542183 0.071334085666558786 0 -0.0025874683205615655 0.069535443573528144 0 -0.0033475525133375211 0.06952602403939645 0 -0.0010422480484641894 0.074449212743801299 0 -0.00080657613485408128 0.074835174664110424 0 -0.0013511966129318577 0.074786127262546409 0 -0.0014248994932382752 0.0753562446209083 0 -0.00080657613485408128 0.074835174664110424 0 -0.0013511966129318577 0.074786127262546409 0 -0.0014472964354549736 0.069617839508452198 0 -0.0021602187525206003 0.071503957325463385 0 -0.0014248994932382752 0.0753562446209083 0 -0.00080657613485408128 0.074835174664110424 0 -0.00064205850648694075 0.075365223059618527 0 -0.00080657613485408128 0.074835174664110424 0 -0.00036656754478403883 0.074913570027233284 0 -0.00064205850648694075 0.075365223059618527 0 -0.00036656754478403883 0.074913570027233284 0 9.4596775192212979e-05 0.075368043832387502 0 -0.00064205850648694075 0.075365223059618527 0 -0.00080657613485408128 0.074835174664110424 0 -0.00036656754478403883 0.074913570027233284 0 -0.0004291917630197955 0.074481658535480472 0 -0.00036656754478403883 0.074913570027233284 0 -0.00010457109664763857 0.074656724303034022 0 -0.0004291917630197955 0.074481658535480472 0 -9.9078283860477783e-05 0.074718709169482395 0 4.7065398113532975e-05 0.074896192700879965 0 4.9294425967108672e-05 0.074653183153879879 0 -1.0347268241831209e-05 0.074988468890507143 0 -8.3187049396606331e-06 0.074994732327314753 0 -1.7194185839784585e-06 0.074994809795216832 0 -0.00013879703905487424 0.074774571800477641 0 -1.1482653878525125e-05 0.074920848931292944 0 -0.00013879703905487424 0.074774571800477641 0 -0.00013892663566997233 0.074773582813318057 0 -0.00013879703905487424 0.074774571800477641 0 -0.00014847021734755688 0.074686239560098067 0 -0.00036656754478403883 0.074913570027233284 0 -0.00010457109664763857 0.074656724303034022 0 -4.7194217224602276e-06 0.075008408628455786 0 -0.00036656754478403883 0.074913570027233284 0 -4.7194217224602276e-06 0.075008408628455786 0 9.4596775192212979e-05 0.075368043832387502 0 -0.00014847021734755688 0.074686239560098067 0 -0.00024613058447237117 0.074314188757815994 0 -8.3187049396606331e-06 0.074994732327314753 0 -4.1085847268129159e-06 0.07499666050496813 0 -6.5081764645077217e-06 0.074999432389199538 0 -4.1085847268129159e-06 0.07499666050496813 0 -1.7194185839784585e-06 0.074994809795216832 0 -1.2858085893626751e-06 0.074999261600422321 0 -1.7194185839784585e-06 0.074994809795216832 0 -6.2416959500868878e-07 0.074999488219845339 0 -1.2858085893626751e-06 0.074999261600422321 0 -4.1085847268129159e-06 0.07499666050496813 0 -1.2858085893626751e-06 0.074999261600422321 0 -6.5081764645077217e-06 0.074999432389199538 0 -8.3187049396606331e-06 0.074994732327314753 0 -4.1085847268129159e-06 0.07499666050496813 0 -1.7194185839784585e-06 0.074994809795216832 0 5.5129820369826834e-08 0.074999880274821601 0 -1.1482653878525125e-05 0.074920848931292944 0 3.279185378275887e-09 0.07499999551671066 0 -1.7194185839784585e-06 0.074994809795216832 0 -6.2416959500868878e-07 0.074999488219845339 0 -1.2137390304685263e-07 0.074999964065861166 0 4.7065398113532975e-05 0.074896192700879965 0 3.0203492953896563e-07 0.07499974438461815 0 4.7065398113532975e-05 0.074896192700879965 0 4.9294425967108672e-05 0.074653183153879879 0 3.0203492953896563e-07 0.07499974438461815 0 4.9294425967108672e-05 0.074653183153879879 0 3.0203492953896563e-07 0.07499974438461815 0 0.00014691463232947388 0.074497269182225032 0 -1.2360009259931901e-08 0.074998170663448688 0 3.0203492953896563e-07 0.07499974438461815 0 0.00014691463232947388 0.074497269182225032 0 4.9294425967108672e-05 0.074653183153879879 0 0.00014691463232947388 0.074497269182225032 0 -1.469622069942419e-06 0.074259264605413794 0 0.00018697651538658063 0.073290967807879706 0 0.00014691463232947388 0.074497269182225032 0 -1.469622069942419e-06 0.074259264605413794 0 0.00018697651538658063 0.073290967807879706 0 -1.469622069942419e-06 0.074259264605413794 0 -0.00044041962448127561 0.07411266269996758 0 -1.469622069942419e-06 0.074259264605413794 0 -0.00044041962448127561 0.07411266269996758 0 -0.00016765881961515071 0.074442367181945829 0 -0.00044041962448127561 0.07411266269996758 0 -0.0004291917630197955 0.074481658535480472 0 -0.00016765881961515071 0.074442367181945829 0 -0.00077591475070730486 0.074325617506546329 0 -0.00044041962448127561 0.07411266269996758 0 -0.0004291917630197955 0.074481658535480472 0 -0.00010045586126995111 0.074747030739339096 0 -0.0004291917630197955 0.074481658535480472 0 -0.00011517133119700221 0.074676006588692626 0 -0.0004291917630197955 0.074481658535480472 0 -0.00011517133119700221 0.074676006588692626 0 -0.00016765881961515071 0.074442367181945829 0 -0.00013879703905487424 0.074774571800477641 0 -0.00020048087770881552 0.074729461861333904 0 4.9294425967108672e-05 0.074653183153879879 0 -0.00011517133119700221 0.074676006588692626 0 -0.00016765881961515071 0.074442367181945829 0 -9.9078283860477783e-05 0.074718709169482395 0 4.9294425967108672e-05 0.074653183153879879 0 -0.00011517133119700221 0.074676006588692626 0 4.9294425967108672e-05 0.074653183153879879 0 -1.469622069942419e-06 0.074259264605413794 0 -0.00016765881961515071 0.074442367181945829 0 -0.0025836741187489926 0.03863232058698305 0 -0.0036713645944032093 0.036749455783613875 0 -0.0011069647889653061 0.037673906766744085 0 -0.0013013889411727473 0.036620258606210744 0 -0.00081180790709851436 0.037309426069677826 0 0.0002512752154773415 0.04199986826383962 0 -0.00033271690537366497 0.041904355598636749 0 -0.00018685858433986589 0.042189915566882973 0 0.0002512752154773415 0.04199986826383962 0 0.00014314366563122056 0.042076940548009763 0 -0.00018685858433986589 0.042189915566882973 0 0.0002512752154773415 0.04199986826383962 0 0.0001500873477534271 0.041867332462842237 0 0.00014314366563122056 0.042076940548009763 0 0.0002512752154773415 0.04199986826383962 0 0.00022935042185707379 0.041401152388895752 0 0.00038426520100159125 0.042135566445064394 0 0.0002512752154773415 0.04199986826383962 0 0.00022935042185707379 0.041401152388895752 0 -0.00033271690537366497 0.041904355598636749 0 -0.0025836741187489926 0.03863232058698305 0 -0.0022231909384772736 0.038962193846936499 0 0.00022935042185707379 0.041401152388895752 0 -0.00033271690537366497 0.041904355598636749 0 -0.00032188472187702055 0.039651968836232523 0 -0.0011069647889653061 0.037673906766744085 0 -0.00032188472187702055 0.039651968836232523 0 -0.00019899840268249841 0.038178724694213247 0 -0.00032188472187702055 0.039651968836232523 0 8.6539666188138105e-07 0.038504118138913704 0 0.00025744420539417244 0.041283563576152704 0 -0.00032188472187702055 0.039651968836232523 0 8.6539666188138105e-07 0.038504118138913704 0 1.5936675540746583e-05 0.037632877311112867 0 8.6539666188138105e-07 0.038504118138913704 0 0.00025744420539417244 0.041283563576152704 0 7.7240504935272644e-07 0.042620294734806156 0 0.00022935042185707379 0.041401152388895752 0 -0.00032188472187702055 0.039651968836232523 0 0.00025744420539417244 0.041283563576152704 0 0.00022935042185707379 0.041401152388895752 0 0.00025744420539417244 0.041283563576152704 0 0.00038426520100159125 0.042135566445064394 0 0.00038426520100159125 0.042135566445064394 0 0.00016302473001701627 0.043436722651891246 0 5.0858722563910194e-05 0.043182238348440621 0 0.00025744420539417244 0.041283563576152704 0 0.00038426520100159125 0.042135566445064394 0 0.00016302473001701627 0.043436722651891246 0 7.7240504935272644e-07 0.042620294734806156 0 0.00016302473001701627 0.043436722651891246 0 -9.7811033159418376e-07 0.046735673782909076 0 0.00025744420539417244 0.041283563576152704 0 7.7240504935272644e-07 0.042620294734806156 0 0.00016302473001701627 0.043436722651891246 0 0.00016302473001701627 0.043436722651891246 0 -9.7811033159418376e-07 0.046735673782909076 0 -0.00031446828431470057 0.045100338063573261 0 -0.00031446828431470057 0.045100338063573261 0 5.0858722563910194e-05 0.043182238348440621 0 -0.0011662385056133799 0.043690834792647827 0 0.00016302473001701627 0.043436722651891246 0 -0.00031446828431470057 0.045100338063573261 0 5.0858722563910194e-05 0.043182238348440621 0 5.0858722563910194e-05 0.043182238348440621 0 -0.00054486485253885174 0.042696013880986206 0 -0.0011662385056133799 0.043690834792647827 0 -0.00054486485253885174 0.042696013880986206 0 -0.00038685150479640814 0.042008913835134491 0 -0.0010396310301352338 0.042278374395805077 0 -0.00054486485253885174 0.042696013880986206 0 0.00016915612845775629 0.042260025120952574 0 -0.00038685150479640814 0.042008913835134491 0 5.0858722563910194e-05 0.043182238348440621 0 -0.00054486485253885174 0.042696013880986206 0 0.00016915612845775629 0.0422600251209