<?xml version="1.0"?>
<VTKFile type="UnstructuredGrid" version="0.1" byte_order="LittleEndian">
<UnstructuredGrid>
<Piece NumberOfPoints="31898" NumberOfCells="11152">
<Points>
<DataArray type="Float64" NumberOfComponents="3" format="ascii">
-0.5 -0.5 0 -0.47620991077874902 -0.44978878706170539 0 -0.49999999999999473 -0.42132396840504388 0 -0.5 -0.5 0 -0.47160970827802529 -0.4793630013852106 0 -0.47620991077874902 -0.44978878706170539 0 -0.5 -0.5 0 -0.47160970827802529 -0.4793630013852106 0 -0.44860394795025399 -0.5 0 -0.47160970827802529 -0.4793630013852106 0 -0.44860394795025399 -0.5 0 -0.4490820238307246 -0.45820516232899983 0 -0.44860394795025399 -0.5 0 -0.4490820238307246 -0.45820516232899983 0 -0.42881687682924802 -0.47781464288736519 0 -0.4490820238307246 -0.45820516232899983 0 -0.45555437223955858 -0.42914059360647611 0 -0.4490820238307246 -0.45820516232899983 0 -0.45555437223955858 -0.42914059360647611 0 -0.43867285131603428 -0.4271457417558665 0 -0.4490820238307246 -0.45820516232899983 0 -0.43867285131603428 -0.4271457417558665 0 -0.4263356171060747 -0.44269880333887462 0 -0.47160970827802529 -0.4793630013852106 0 -0.4490820238307246 -0.45820516232899983 0 -0.47620991077874902 -0.44978878706170539 0 -0.4490820238307246 -0.45820516232899983 0 -0.47620991077874902 -0.44978878706170539 0 -0.45555437223955858 -0.42914059360647611 0 -0.47620991077874902 -0.44978878706170539 0 -0.48101336032419229 -0.41069999664450008 0 -0.45555437223955858 -0.42914059360647611 0 -0.47620991077874902 -0.44978878706170539 0 -0.49999999999999473 -0.42132396840504388 0 -0.48101336032419229 -0.41069999664450008 0 -0.49999999999999473 -0.42132396840504388 0 -0.48101336032419229 -0.41069999664450008 0 -0.5 -0.393886241813306 0 -0.49999999999999473 -0.42132396840504388 0 -0.48101336032419229 -0.41069999664450008 0 -0.5 -0.393886241813306 0 -0.47854472220918332 -0.38978458738689759 0 -0.48422759779560409 -0.37130120630367158 0 -0.5 -0.393886241813306 0 -0.5 -0.36644851522156802 0 -0.48422759779560409 -0.37130120630367158 0 -0.48101336032419229 -0.41069999664450008 0 -0.5 -0.393886241813306 0 -0.47854472220918332 -0.38978458738689759 0 -0.48101336032419229 -0.41069999664450008 0 -0.47854472220918332 -0.38978458738689759 0 -0.46202672064839212 -0.40007602488395211 0 -0.48101336032419229 -0.41069999664450008 0 -0.46202672064839212 -0.40007602488395211 0 -0.47854472220918332 -0.38978458738689759 0 -0.46725442735267431 -0.37660061361585562 0 -0.46202672064839212 -0.40007602488395211 0 -0.47854472220918332 -0.38978458738689759 0 -0.46725442735267431 -0.37660061361585562 0 -0.48422759779560409 -0.37130120630367158 0 -0.46725442735267431 -0.37660061361585562 0 -0.46202672064839212 -0.40007602488395211 0 -0.46725442735267431 -0.37660061361585562 0 -0.45645674801697989 -0.38644133236760531 0 -0.46202672064839212 -0.40007602488395211 0 -0.46725442735267431 -0.37660061361585562 0 -0.45645674801697989 -0.38644133236760531 0 -0.4540003998136638 -0.37455519391687309 0 -0.45645674801697989 -0.38644133236760531 0 -0.46202672064839212 -0.40007602488395211 0 -0.44257020456291563 -0.38918913383950271 0 -0.46202672064839212 -0.40007602488395211 0 -0.44257020456291563 -0.38918913383950271 0 -0.44727608925983742 -0.41095911152778891 0 -0.46202672064839212 -0.40007602488395211 0 -0.44257020456291563 -0.38918913383950271 0 -0.44257020456291563 -0.38918913383950271 0 -0.44727608925983742 -0.41095911152778891 0 -0.43479358559901082 -0.4041454901736512 0 -0.44257020456291563 -0.38918913383950271 0 -0.4540003998136638 -0.37455519391687309 0 -0.44172858264042247 -0.37082207246888088 0 -0.45645674801697989 -0.38644133236760531 0 -0.44257020456291563 -0.38918913383950271 0 -0.4540003998136638 -0.37455519391687309 0 -0.46202672064839212 -0.40007602488395211 0 -0.45555437223955858 -0.42914059360647611 0 -0.44727608925983742 -0.41095911152778891 0 -0.46202672064839212 -0.40007602488395211 0 -0.45555437223955858 -0.42914059360647611 0 -0.48101336032419229 -0.41069999664450008 0 -0.46202672064839212 -0.40007602488395211 0 -0.45555437223955858 -0.42914059360647611 0 -0.44727608925983742 -0.41095911152778891 0 -0.43867285131603428 -0.4271457417558665 0 -0.43676601469929588 -0.41441201227470881 0 -0.44727608925983742 -0.41095911152778891 0 -0.43676601469929588 -0.41441201227470881 0 -0.43479358559901082 -0.4041454901736512 0 -0.45555437223955858 -0.42914059360647611 0 -0.44727608925983742 -0.41095911152778891 0 -0.43867285131603428 -0.4271457417558665 0 -0.43867285131603428 -0.4271457417558665 0 -0.42681803064840879 -0.42717069814352421 0 -0.4263356171060747 -0.44269880333887462 0 -0.42681803064840879 -0.42717069814352421 0 -0.41531815884496182 -0.42985383783075998 0 -0.4263356171060747 -0.44269880333887462 0 -0.42681803064840879 -0.42717069814352421 0 -0.42624289495594048 -0.42089725947505818 0 -0.42083332353326591 -0.42146747131641099 0 -0.42681803064840879 -0.42717069814352421 0 -0.43096994786351572 -0.41951492446283251 0 -0.42624289495594048 -0.42089725947505818 0 -0.43867285131603428 -0.4271457417558665 0 -0.42681803064840879 -0.42717069814352421 0 -0.43096994786351572 -0.41951492446283251 0 -0.43867285131603428 -0.4271457417558665 0 -0.43676601469929588 -0.41441201227470881 0 -0.43096994786351572 -0.41951492446283251 0 -0.43676601469929588 -0.41441201227470881 0 -0.43096994786351572 -0.41951492446283251 0 -0.42907264086257813 -0.41311715872526122 0 -0.43676601469929588 -0.41441201227470881 0 -0.42907264086257813 -0.41311715872526122 0 -0.43479358559901082 -0.4041454901736512 0 -0.42907264086257813 -0.41311715872526122 0 -0.43479358559901082 -0.4041454901736512 0 -0.42460885511582858 -0.40417321677700252 0 -0.42907264086257813 -0.41311715872526122 0 -0.41997834854398469 -0.41180534796019508 0 -0.42907264086257813 -0.41311715872526122 0 -0.42635027777857132 -0.41543594397746519 0 -0.41997834854398469 -0.41180534796019508 0 -0.42907264086257813 -0.41311715872526122 0 -0.41997834854398469 -0.41180534796019508 0 -0.42460885511582858 -0.40417321677700252 0 -0.42635027777857132 -0.41543594397746519 0 -0.41997834854398469 -0.41180534796019508 0 -0.42635027777857132 -0.41543594397746519 0 -0.42083332353326591 -0.42146747131641099 0 -0.41997834854398469 -0.41180534796019508 0 -0.43096994786351572 -0.41951492446283251 0 -0.42624289495594048 -0.42089725947505818 0 -0.42635027777857132 -0.41543594397746519 0 -0.43096994786351572 -0.41951492446283251 0 -0.42907264086257813 -0.41311715872526122 0 -0.42635027777857132 -0.41543594397746519 0 -0.42624289495594048 -0.42089725947505818 0 -0.42635027777857132 -0.41543594397746519 0 -0.42083332353326591 -0.42146747131641099 0 -0.42083332353326591 -0.42146747131641099 0 -0.41997834854398469 -0.41180534796019508 0 -0.40992282953163789 -0.42011435591993562 0 -0.41997834854398469 -0.41180534796019508 0 -0.39756877647335259 -0.40857286797681719 0 -0.41997834854398469 -0.41180534796019508 0 -0.40992282953163789 -0.42011435591993562 0 -0.39756877647335259 -0.40857286797681719 0 -0.40992282953163789 -0.42011435591993562 0 -0.41531815884496182 -0.42985383783075998 0 -0.39591554026262499 -0.42887225451549271 0 -0.41531815884496182 -0.42985383783075998 0 -0.39591554026262499 -0.42887225451549271 0 -0.41160927495564159 -0.44339431233754628 0 -0.42083332353326591 -0.42146747131641099 0 -0.40992282953163789 -0.42011435591993562 0 -0.41531815884496182 -0.42985383783075998 0 -0.42681803064840879 -0.42717069814352421 0 -0.42083332353326591 -0.42146747131641099 0 -0.41531815884496182 -0.42985383783075998 0 -0.44257020456291563 -0.38918913383950271 0 -0.42311368847744002 -0.37830224279505142 0 -0.42594061475171041 -0.39368797999533162 0 -0.44257020456291563 -0.38918913383950271 0 -0.42311368847744002 -0.37830224279505142 0 -0.44172858264042247 -0.37082207246888088 0 -0.44257020456291563 -0.38918913383950271 0 -0.42311368847744002 -0.37830224279505142 0 -0.42311368847744002 -0.37830224279505142 0 -0.42594061475171041 -0.39368797999533162 0 -0.416587075656149 -0.38785930376960043 0 -0.44257020456291563 -0.38918913383950271 0 -0.42594061475171041 -0.39368797999533162 0 -0.43479358559901082 -0.4041454901736512 0 -0.42594061475171041 -0.39368797999533162 0 -0.43479358559901082 -0.4041454901736512 0 -0.42460885511582858 -0.40417321677700252 0 -0.41997834854398469 -0.41180534796019508 0 -0.41325908582185972 -0.39811010703057192 0 -0.39770572831670092 -0.39911486077581648 0 -0.41997834854398469 -0.41180534796019508 0 -0.39770572831670092 -0.39911486077581648 0 -0.42594061475171041 -0.39368797999533162 0 -0.42460885511582858 -0.40417321677700252 0 -0.41325908582185972 -0.39811010703057192 0 -0.41997834854398469 -0.41180534796019508 0 -0.42460885511582858 -0.40417321677700252 0 -0.41325908582185972 -0.39811010703057192 0 -0.42594061475171041 -0.39368797999533162 0 -0.41325908582185972 -0.39811010703057192 0 -0.416587075656149 -0.38785930376960043 0 -0.41325908582185972 -0.39811010703057192 0 -0.416587075656149 -0.38785930376960043 0 -0.40403491357358612 -0.38133688525744702 0 -0.42311368847744002 -0.37830224279505142 0 -0.40403491357358612 -0.38133688525744702 0 -0.40365717239196519 -0.36741535175059892 0 -0.42311368847744002 -0.37830224279505142 0 -0.416587075656149 -0.38785930376960043 0 -0.40403491357358612 -0.38133688525744702 0 -0.40403491357358612 -0.38133688525744702 0 -0.39190790742475001 -0.38540387676521748 0 -0.39770572831670092 -0.39911486077581648 0 -0.40403491357358612 -0.38133688525744702 0 -0.39190790742475001 -0.38540387676521748 0 -0.3904578797192948 -0.37473938743617019 0 -0.41325908582185972 -0.39811010703057192 0 -0.40403491357358612 -0.38133688525744702 0 -0.39770572831670092 -0.39911486077581648 0 -0.39770572831670092 -0.39911486077581648 0 -0.37543310808941849 -0.38642437359143528 0 -0.39770572831670092 -0.39911486077581648 0 -0.37515920440272033 -0.40534038799344108 0 -0.37543310808941849 -0.38642437359143528 0 -0.39770572831670092 -0.39911486077581648 0 -0.37515920440272033 -0.40534038799344108 0 -0.39756877647335259 -0.40857286797681719
[...]
<PointData Scalars="" Vectors="displacement," Tensors="">
<DataArray type="Float64" Name="displacement" NumberOfComponents="3" format="ascii">
0.074993827099186602 5.7314633221638198e-07 0 0.073101963803927125 0.00037986865510410887 0 0.074994979355806915 1.5870187896179487e-06 0 0.074993827099186602 5.7314633221638198e-07 0 0.071716749730605517 0.00025144131086492048 0 0.073101963803927125 0.00037986865510410887 0 0.074993827099186602 5.7314633221638198e-07 0 0.071716749730605517 0.00025144131086492048 0 0.067294736367846636 5.5260112662496576e-07 0 0.071716749730605517 0.00025144131086492048 0 0.067294736367846636 5.5260112662496576e-07 0 0.070378634952273852 -0.00018014047167747479 0 0.067294736367846636 5.5260112662496576e-07 0 0.070378634952273852 -0.00018014047167747479 0 0.066874907645179532 0.00014399313694462407 0 0.071081335754217184 -0.00048008934385888549 0 0.071445263491966601 -0.00048510260406532955 0 0.070378634952273852 -0.00018014047167747479 0 0.069068460988361641 -0.00075993671645447735 0 0.0689495271941995 -0.0002457521622789731 0 0.070378634952273852 -0.00018014047167747479 0 0.0689495271941995 -0.0002457521622789731 0 0.069072688162457499 -2.3728989890373342e-05 0 0.071716749730605517 0.00025144131086492048 0 0.070378634952273852 -0.00018014047167747479 0 0.073101963803927125 0.00037986865510410887 0 0.070378634952273852 -0.00018014047167747479 0 0.073101963803927125 0.00037986865510410887 0 0.073807582449959247 -0.00058334853215770161 0 0.073101963803927125 0.00037986865510410887 0 0.074753811829942687 6.0216115250634043e-05 0 0.073807582449959247 -0.00058334853215770161 0 0.073101963803927125 0.00037986865510410887 0 0.074994979355806915 1.5870187896179487e-06 0 0.074753811829942687 6.0216115250634043e-05 0 0.074999997409110744 -2.1752394356936263e-10 0 0.074996777004461168 9.2667538455243374e-07 0 0.074999996078374362 1.1864232109447304e-09 0 0.074997646089581593 -9.3453866021630401e-07 0 0.073837019783391786 -0.00030220420060147156 0 0.074999996078374362 1.1864232109447304e-09 0 0.074996182133109726 1.7027425050542723e-06 0 0.074998392862776042 2.8241480419586671e-06 0 0.074999996078374362 1.1864232109447304e-09 0 0.07499999348789041 4.2634957610086803e-09 0 0.074998392862776042 2.8241480419586671e-06 0 0.074996777004461168 9.2667538455243374e-07 0 0.074999996078374362 1.1864232109447304e-09 0 0.074996182133109726 1.7027425050542723e-06 0 0.074996777004461168 9.2667538455243374e-07 0 0.074996182133109726 1.7027425050542723e-06 0 0.074992026706656001 1.2938511723005497e-06 0 0.073837019783391786 -0.00030220420060147156 0 0.072047763990705144 -0.00037327161053631524 0 0.074996182133109726 1.7027425050542723e-06 0 0.074995260354057375 1.8378727081373789e-06 0 0.074992026706656001 1.2938511723005497e-06 0 0.074996182133109726 1.7027425050542723e-06 0 0.074995260354057375 1.8378727081373789e-06 0 0.074998392862776042 2.8241480419586671e-06 0 0.073169026107043567 -0.00016130106082006397 0 0.072047763990705144 -0.00037327161053631524 0 0.071605431643123107 -0.00032724815592763775 0 0.071193646625088383 -0.0008129351665252866 0 0.070607965696437403 -0.00057502858444168558 0 0.071605431643123107 -0.00032724815592763775 0 0.071193646625088383 -0.0008129351665252866 0 0.071717713454030427 -0.00093022614581175507 0 0.071193646625088383 -0.0008129351665252866 0 0.070607965696437403 -0.00057502858444168558 0 0.071085335872575386 -0.0014122468776014928 0 0.068379310799204021 -0.00089371351393715669 0 0.068115196401175374 -0.0004590752852638808 0 0.068634798866159585 -0.00053860813015721648 0 0.072047763990705144 -0.00037327161053631524 0 0.070134284969119526 -0.00086295171200529829 0 0.068115196401175374 -0.0004590752852638808 0 0.068634798866159585 -0.00053860813015721648 0 0.068486629593323065 -0.00027198111203081027 0 0.071085335872575386 -0.0014122468776014928 0 0.071717713454030427 -0.00093022614581175507 0 0.071876631140473476 -0.0014505927807520994 0 0.071193646625088383 -0.0008129351665252866 0 0.071085335872575386 -0.0014122468776014928 0 0.071717713454030427 -0.00093022614581175507 0 0.068379310799204021 -0.00089371351393715669 0 0.069068460988361641 -0.00075993671645447735 0 0.068634798866159585 -0.00053860813015721648 0 0.072047763990705144 -0.00037327161053631524 0 0.071445263491966601 -0.00048510260406532955 0 0.074753811829942687 6.0216115250634043e-05 0 0.075016956975947652 -0.0005199407394209549 0 0.073807582449959247 -0.00058334853215770161 0 0.068634798866159585 -0.00053860813015721648 0 0.0689495271941995 -0.0002457521622789731 0 0.068740400800882395 -0.00029524780392329919 0 0.068634798866159585 -0.00053860813015721648 0 0.068740400800882395 -0.00029524780392329919 0 0.068486629593323065 -0.00027198111203081027 0 0.069068460988361641 -0.00075993671645447735 0 0.068634798866159585 -0.00053860813015721648 0 0.0689495271941995 -0.0002457521622789731 0 0.0689495271941995 -0.0002457521622789731 0 0.068947954207805112 -0.00014575691744219264 0 0.069072688162457499 -2.3728989890373342e-05 0 0.068947954207805112 -0.00014575691744219264 0 0.068961806393412553 -0.00023656706257496284 0 0.069072688162457499 -2.3728989890373342e-05 0 0.068947954207805112 -0.00014575691744219264 0 0.068890176905014464 -0.00015597742786569721 0 0.068911279400632727 -0.00017989624068497225 0 0.068947954207805112 -0.00014575691744219264 0 0.068859899352068057 -0.00018850229712672129 0 0.068890176905014464 -0.00015597742786569721 0 0.0689495271941995 -0.0002457521622789731 0 0.068947954207805112 -0.00014575691744219264 0 0.068859899352068057 -0.00018850229712672129 0 0.0689495271941995 -0.0002457521622789731 0 0.068740400800882395 -0.00029524780392329919 0 0.068859899352068057 -0.00018850229712672129 0 0.068740400800882395 -0.00029524780392329919 0 0.068859899352068057 -0.00018850229712672129 0 0.068752272061222572 -0.00016037491139008229 0 0.068740400800882395 -0.00029524780392329919 0 0.068752272061222572 -0.00016037491139008229 0 0.068486629593323065 -0.00027198111203081027 0 0.068752272061222572 -0.00016037491139008229 0 0.068486629593323065 -0.00027198111203081027 0 0.068484379058798214 -2.1774798813770243e-05 0 0.061795238887541265 -0.001803148865354475 0 0.061567848677420746 -0.0019307727601174827 0 0.068752272061222572 -0.00016037491139008229 0 0.068837123847283285 -0.00012962516871892427 0 0.068766523825161227 -8.2719311636932262e-06 0 0.068752272061222572 -0.00016037491139008229 0 0.068693528569334208 0.00010120027382673733 0 0.068484379058798214 -2.1774798813770243e-05 0 0.061784099604295262 -0.0020011973113974804 0 0.061567848677420746 -0.0019307727601174827 0 0.068837123847283285 -0.00012962516871892427 0 0.068911279400632727 -0.00017989624068497225 0 0.068925255020717474 -0.00018974948970031726 0 0.068859899352068057 -0.00018850229712672129 0 0.068890176905014464 -0.00015597742786569721 0 0.068837123847283285 -0.00012962516871892427 0 0.068859899352068057 -0.00018850229712672129 0 0.068752272061222572 -0.00016037491139008229 0 0.068837123847283285 -0.00012962516871892427 0 0.068890176905014464 -0.00015597742786569721 0 0.068837123847283285 -0.00012962516871892427 0 0.068911279400632727 -0.00017989624068497225 0 0.068911279400632727 -0.00017989624068497225 0 0.068925255020717474 -0.00018974948970031726 0 0.068927163589906776 -0.00024643227148654005 0 0.061567848677420746 -0.0019307727601174827 0 0.059924540234256696 -0.0015399462015003877 0 0.068925255020717474 -0.00018974948970031726 0 0.068927163589906776 -0.00024643227148654005 0 0.068950631833049308 -0.00031021542203366027 0 0.068927163589906776 -0.00024643227148654005 0 0.068961806393412553 -0.00023656706257496284 0 0.068902331852417981 -0.00032911816848819246 0 0.068961806393412553 -0.00023656706257496284 0 0.068902331852417981 -0.00032911816848819246 0 0.068920547812608396 -0.00038241905144485732 0 0.068911279400632727 -0.00017989624068497225 0 0.068927163589906776 -0.00024643227148654005 0 0.068961806393412553 -0.00023656706257496284 0 0.068947954207805112 -0.00014575691744219264 0 0.068911279400632727 -0.00017989624068497225 0 0.068961806393412553 -0.00023656706257496284 0 0.068115196401175374 -0.0004590752852638808 0 0.067786391102532595 1.599563075700361e-05 0 0.0682048499718758 -5.3600788033346797e-05 0 0.071085335872575386 -0.0014122468776014928 0 0.071557679246433692 -0.0022183441842406741 0 0.071876631140473476 -0.0014505927807520994 0 0.070134284969119526 -0.00086295171200529829 0 0.06863980021661005 -0.0016621301414136071 0 0.067786391102532595 1.599563075700361e-05 0 0.0682048499718758 -5.3600788033346797e-05 0 0.068033453421899343 0.00018704091558313993 0 0.068115196401175374 -0.0004590752852638808 0 0.0682048499718758 -5.3600788033346797e-05 0 0.068486629593323065 -0.00027198111203081027 0 0.0682048499718758 -5.3600788033346797e-05 0 0.068486629593323065 -0.00027198111203081027 0 0.068484379058798214 -2.1774798813770243e-05 0 0.068693528569334208 0.00010120027382673733 0 0.068311773142807883 0.000277453759582848 0 0.068330960015339781 0.00069995496586553721 0 0.061567848677420746 -0.0019307727601174827 0 0.06012989768359317 -0.0021827765841603412 0 0.0682048499718758 -5.3600788033346797e-05 0 0.068484379058798214 -2.1774798813770243e-05 0 0.068311773142807883 0.000277453759582848 0 0.068693528569334208 0.00010120027382673733 0 0.068484379058798214 -2.1774798813770243e-05 0 0.068311773142807883 0.000277453759582848 0 0.0682048499718758 -5.3600788033346797e-05 0 0.068311773142807883 0.000277453759582848 0 0.068033453421899343 0.00018704091558313993 0 0.068311773142807883 0.000277453759582848 0 0.068033453421899343 0.00018704091558313993 0 0.06783219694347907 0.00051148598118655572 0 0.067786391102532595 1.599563075700361e-05 0 0.06783219694347907 0.00051148598118655572 0 0.067478008467388204 0.00051622401063494434 0 0.067786391102532595 1.599563075700361e-05 0 0.068033453421899343 0.00018704091558313993 0 0.06783219694347907 0.00051148598118655572 0 0.06783219694347907 0.00051148598118655572 0 0.067928703353430847 0.00087432303857855938 0 0.068330960015339781 0.00069995496586553721 0 0.06783219694347907 0.00051148598118655572 0 0.067928703353430847 0.00087432303857855938 0 0.067600646656682722 0.00091909917366819153 0 0.068311773142807883 0.000277453759582848 0 0.06783219694347907 0.00051148598118655572 0 0.068330960015339781 0.00069995496586553721 0 0.06012989768359317 -0.0021827765841603412 0 0.056322704911812321 -0.0025906711794991054 0 0.058690094885328073 -0.0019641439960983395 0 0.058875058339236383 -0.0012722848692324818 0 0.058293668566630118 -0.0012816477832044331 0 0.058690094885328073 -0.0019641439960983395 0 0.058875058339236383 -0.0012722848692324818 0 0.058981207107402345 -0.0019595457904805847 0 0.056459797388878172 -0.0010243001297427004 0 0.056322704911812321 -0.0025906711794991054 0 0.067945564661817531 0.0013727903732103442 0 0.067600646656682722 0.00091909917366819153 0 0.067413589982416491 0.0013749222680576924 0 0.067928703353430847 0.00087432303857855938 0 0.067945564661817531 0.0013727903732103442 0 0.067600646656682722 0.00091909917366819153 0 0.056322704911812321 -0.0025906711794991054 0 0.059597908385049539 -0.0024225870715218777 0 0.067928703353430847 0.00087432303857855938 0 0.068330960015339781 0.00069995496586553721 0 0.067945564661817531 0.0013727903732103442 0 0.059090395604235887 -0.0026455621208448352 0 0.058690094885328073 -0.0019641439960983395 0 0.058981207107402345 -0.0019595457904805847 0 0.068927163589906776 -0.00024643227148654005 0 0.068902331852417981 -0.00032911816848819246 0 0.068950631833049308 -0.00031021542203366027 0 0.068928956567891733 -0.00037250130437079725 0 0.068902331852417981 -0.00032911816848819246 0 0.068950631833049308 -0.00031021542203366027 0 0.056459797388878172 -0.0010243001297427004 0 0.059924540234256696 -0.0015399462015003877 0 0.068928956567891733 -0.00037250130437079725 0 0.068902331852417981 -0.00032911816848819246 0 0.068877229515147395 -0.00037695807829772805 0 0.068902331852417981 -0.00032911816848819246 0 0.068881167919124714 -0.00035450922183878213 0 0.068877229515147395 -0.00037695807829772805 0 0.068881167919124714 -0.00035450922183878213 0 0.068822895583762825 -0.00038934986126135422 0 0.068877229515147395 -0.00037695807829772805 0 0.068902331852417981 -0.00032911816848819246 0 0.068881167919124714 -0.00035450922183878213 0 0.068920547812608396 -0.00038241905144485732 0 0.068881167919124714 -0.00035450922183878213 0 0.068874809670790002 -0.00035845991937618021 0 0.068920547812608396 -0.00038241905144485732 0 0.067891058232714241 -0.0013264691568807179 0 0.063647630840708583 -0.0015727277261542425 0 0.066569247422715042 -0.00045586599432216428 0 0.05093027571570264 -0.0035512767934063913 0 0.05138373414803709 -0.0018273969036993714 0 0.053409206495720229 -0.0022480083808279305 0 0.060649108541650981 0.0012046659032218204 0 0.058717942258713081 9.3466832083689984e-05 0 0.060649108541650981 0.0012046659032218204 0 0.060669113672689678 0.0011973452554893853 0 0.060649108541650981 0.0012046659032218204 0 0.059009830801699477 -0.00038015861704461101 0 0.068881167919124714 -0.00035450922183878213 0 0.068874809670790002 -0.00035845991937618021 0 0.068846195817988662 -0.00036382703069937094 0 0.068881167919124714 -0.00035450922183878213 0 0.068846195817988662 -0.00036382703069937094 0 0.068822895583762825 -0.00038934986126135422 0 0.059009830801699477 -0.00038015861704461101 0 0.0572249764497018 -0.0015665385561011798 0 0.05138373414803709 -0.0018273969036993714 0 0.052556556308145028 -0.0011933250742286322 0 0.051842523880437072 -5.9252058465059137e-05 0 0.052556556308145028 -0.0011933250742286322 0 0.053409206495720229 -0.0022480083808279305 0 0.05322833363618848 -1.6447031452756798e-05 0 0.053409206495720229 -0.0022480083808279305 0 0.054709385192321804 0.0002716010934934936 0 0.05322833363618848 -1.6447031452756798e-05 0 0.052556556308145028 -0.0011933250742286322 0 0.05322833363618848 -1.6447031452756798e-05 0 0.051842523880437072 -5.9252058465059137e-05 0 0.05138373414803709 -0.0018273969036993714 0 0.052556556308145028 -0.0011933250742286322 0 0.053409206495720229 -0.0022480083808279305 0 0.057144774863246942 -4.0938317787688028e-07 0 0.058717942258713081 9.3466832083689984e-05 0 0.05713574314421592 -3.8409333488067466e-06 0 0.053409206495720229 -0.0022480083808279305 0 0.054709385192321804 0.0002716010934934936 0 0.057149435753874503 -6.06029403831275e-06 0 0.063647630840708583 -0.0015727277261542425 0 0.061497295440849399 1.0858095161900194e-06 0 0.063647630840708583 -0.0015727277261542425 0 0.066569247422715042 -0.00045586599432216428 0 0.061497295440849399 1.0858095161900194e-06 0 0.066569247422715042 -0.00045586599432216428 0 0.061497295440849399 1.0858095161900194e-06 0 0.066874907645179532 0.00014399313694462407 0 0.067294736367846636 5.5260112662496576e-07 0 0.061497295440849399 1.0858095161900194e-06 0 0.066874907645179532 0.00014399313694462407 0 0.066569247422715042 -0.00045586599432216428 0 0.066874907645179532 0.00014399313694462407 0 0.068429120096645743 -5.4380720938462389e-05 0 0.070378634952273852 -0.00018014047167747479 0 0.066874907645179532 0.00014399313694462407 0 0.068429120096645743 -5.4380720938462389e-05 0 0.070378634952273852 -0.00018014047167747479 0 0.068429120096645743 -5.4380720938462389e-05 0 0.069072688162457499 -2.3728989890373342e-05 0 0.068429120096645743 -5.4380720938462389e-05 0 0.069072688162457499 -2.3728989890373342e-05 0 0.068441243078487257 -0.00030235736107145041 0 0.069072688162457499 -2.3728989890373342e-05 0 0.068920547812608396 -0.00038241905144485732 0 0.068441243078487257 -0.00030235736107145041 0 0.068961806393412553 -0.00023656706257496284 0 0.069072688162457499 -2.3728989890373342e-05 0 0.068920547812608396 -0.00038241905144485732 0 0.067978292983070232 -0.0012622062505061235 0 0.068920547812608396 -0.00038241905144485732 0 0.068020102198331309 -0.0010433211330736472 0 0.068920547812608396 -0.00038241905144485732 0 0.068020102198331309 -0.0010433211330736472 0 0.068441243078487257 -0.00030235736107145041 0 0.060649108541650981 0.0012046659032218204 0 0.062649646537936518 0.0016975341138716613 0 0.066569247422715042 -0.00045586599432216428 0 0.068020102198331309 -0.0010433211330736472 0 0.068441243078487257 -0.00030235736107145041 0 0.067891058232714241 -0.0013264691568807179 0 0.066569247422715042 -0.00045586599432216428 0 0.068020102198331309 -0.0010433211330736472 0 0.066569247422715042 -0.00045586599432216428 0 0.068429120096645743 -5.4380720938462389e-05 0 0.068441243078487257 -0.00030235736107145041 0 0.068934424830588731 -0.00074425529407695222 0 0.065566408125690825 -0.0027304012177515415 0 0.074528883382074043 0.00083978121749986919 0 0.074638365145854188 0.0034491789395379182 0 0.073248600968079031 0.0013487478030554084 0 0.074859895682375638 -0.00023284198440433988 0 0.074913591046199643 -0.00017731751599883003 0 0.074924540292952771 -0.00030649893667541853 0 0.074859895682375638 -0.00023284198440433988 0 0.074846752575603123 -0.00034136171086654666 0 0.074924540292952771 -0.00030649893667541853 0 0.074859895682375638 -0.00023284198440433988 0 0.074787999705159078 -0.00033171758270028617 0 0.074846752575603123 -0.00034136171086654666 0 0.074859895682375638 -0.00023284198440433988 0 0.074871144771786691 -0.00012345650334914194 0 0.07487888353610235 -0.00011584817767924735 0 0.074859895682375638 -0.00023284198440433988 0 0.074871144771786691 -0.00012345650334914194 0 0.074913591046199643 -0.00017731751599883003 0 0.068934424830588731 -0.00074425529407695222 0 0.069946589832621142 -0.00054553977940930917 0 0.074871144771786691 -0.00012345650334914194 0 0.074913591046199643 -0.00017731751599883003 0 0.074772888320949277 -0.00011236132209760757 0 0.074528883382074043 0.00083978121749986919 0 0.074772888320949277 -0.00011236132209760757 0 0.0733916411037914 -7.0088401413936837e-05 0 0.074772888320949277 -0.00011236132209760757 0 0.074999811496724147 -2.4302107848130848e-07 0 0.074912450484481002 -7.2731799813117515e-05 0 0.074772888320949277 -0.00011236132209760757 0 0.074999811496724147 -2.4302107848130848e-07 0 0.074383236461800561 -0.00014537927573793385 0 0.074999811496724147 -2.4302107848130848e-07 0 0.074912450484481002 -7.2731799813117515e-05 0 0.074999844840320865 1.300514958715336e-08 0 0.074871144771786691 -0.00012345650334914194 0 0.074772888320949277 -0.00011236132209760757 0 0.074912450484481002 -7.2731799813117515e-05 0 0.074871144771786691 -0.00012345650334914194 0 0.074912450484481002 -7.2731799813117515e-05 0 0.07487888353610235 -0.00011584817767924735 0 0.07487888353610235 -0.00011584817767924735 0 0.074920621659361988 -1.9911798936163174e-05 0 0.074846254211482874 -8.7641223953568008e-05 0 0.074912450484481002 -7.2731799813117515e-05 0 0.07487888353610235 -0.00011584817767924735 0 0.074920621659361988 -1.9911798936163174e-05 0 0.074999844840320865 1.300514958715336e-08 0 0.074920621659361988 -1.9911798936163174e-05 0 0.074999839008877717 -2.0320288032818326e-08 0 0.074912450484481002 -7.2731799813117515e-05 0 0.074999844840320865 1.300514958715336e-08 0 0.074920621659361988 -1.9911798936163174e-05 0 0.074920621659361988 -1.9911798936163174e-05 0 0.074999839008877717 -2.0320288032818326e-08 0 0.074882655824722935 2.2988880894286206e-05 0 0.074882655824722935 2.2988880894286206e-05 0 0.074846254211482874 -8.7641223953568008e-05 0 0.074655303267351564 -7.3981165464415182e-05 0 0.074920621659361988 -1.9911798936163174e-05 0 0.074882655824722935 2.2988880894286206e-05 0 0.074846254211482874 -8.7641223953568008e-05 0 0.074846254211482874 -8.7641223953568008e-05 0 0.074711560389265907 -0.00020661207667526882 0 0.074655303267351564 -7.3981165464415182e-05 0 0.074711560389265907 -0.00020661207667526882 0 0.074700761175431812 -0.0003190710744468947 0 0.074592750781588599 -0.00031036565933833323 0 0.074711560389265907 -0.00020661207667526882 0 0.074814019600918671 -0.00021416384339311131 0 0.074700761175431812 -0.0003190710744468947 0 0.074846254211482874 -8.7641223953568008e-05 0 0.0747115603892