<?xml version="1.0"?>
<VTKFile type="UnstructuredGrid" version="0.1" byte_order="LittleEndian">
<UnstructuredGrid>
<Piece NumberOfPoints="31898" NumberOfCells="11152">
<Points>
<DataArray type="Float64" NumberOfComponents="3" format="ascii">
-0.5 -0.5 0 -0.47620991077874902 -0.44978878706170539 0 -0.49999999999999473 -0.42132396840504388 0 -0.5 -0.5 0 -0.47160970827802529 -0.4793630013852106 0 -0.47620991077874902 -0.44978878706170539 0 -0.5 -0.5 0 -0.47160970827802529 -0.4793630013852106 0 -0.44860394795025399 -0.5 0 -0.47160970827802529 -0.4793630013852106 0 -0.44860394795025399 -0.5 0 -0.4490820238307246 -0.45820516232899983 0 -0.44860394795025399 -0.5 0 -0.4490820238307246 -0.45820516232899983 0 -0.42881687682924802 -0.47781464288736519 0 -0.4490820238307246 -0.45820516232899983 0 -0.45555437223955858 -0.42914059360647611 0 -0.4490820238307246 -0.45820516232899983 0 -0.45555437223955858 -0.42914059360647611 0 -0.43867285131603428 -0.4271457417558665 0 -0.4490820238307246 -0.45820516232899983 0 -0.43867285131603428 -0.4271457417558665 0 -0.4263356171060747 -0.44269880333887462 0 -0.47160970827802529 -0.4793630013852106 0 -0.4490820238307246 -0.45820516232899983 0 -0.47620991077874902 -0.44978878706170539 0 -0.4490820238307246 -0.45820516232899983 0 -0.47620991077874902 -0.44978878706170539 0 -0.45555437223955858 -0.42914059360647611 0 -0.47620991077874902 -0.44978878706170539 0 -0.48101336032419229 -0.41069999664450008 0 -0.45555437223955858 -0.42914059360647611 0 -0.47620991077874902 -0.44978878706170539 0 -0.49999999999999473 -0.42132396840504388 0 -0.48101336032419229 -0.41069999664450008 0 -0.49999999999999473 -0.42132396840504388 0 -0.48101336032419229 -0.41069999664450008 0 -0.5 -0.393886241813306 0 -0.49999999999999473 -0.42132396840504388 0 -0.48101336032419229 -0.41069999664450008 0 -0.5 -0.393886241813306 0 -0.47854472220918332 -0.38978458738689759 0 -0.48422759779560409 -0.37130120630367158 0 -0.5 -0.393886241813306 0 -0.5 -0.36644851522156802 0 -0.48422759779560409 -0.37130120630367158 0 -0.48101336032419229 -0.41069999664450008 0 -0.5 -0.393886241813306 0 -0.47854472220918332 -0.38978458738689759 0 -0.48101336032419229 -0.41069999664450008 0 -0.47854472220918332 -0.38978458738689759 0 -0.46202672064839212 -0.40007602488395211 0 -0.48101336032419229 -0.41069999664450008 0 -0.46202672064839212 -0.40007602488395211 0 -0.47854472220918332 -0.38978458738689759 0 -0.46725442735267431 -0.37660061361585562 0 -0.46202672064839212 -0.40007602488395211 0 -0.47854472220918332 -0.38978458738689759 0 -0.46725442735267431 -0.37660061361585562 0 -0.48422759779560409 -0.37130120630367158 0 -0.46725442735267431 -0.37660061361585562 0 -0.46202672064839212 -0.40007602488395211 0 -0.46725442735267431 -0.37660061361585562 0 -0.45645674801697989 -0.38644133236760531 0 -0.46202672064839212 -0.40007602488395211 0 -0.46725442735267431 -0.37660061361585562 0 -0.45645674801697989 -0.38644133236760531 0 -0.4540003998136638 -0.37455519391687309 0 -0.45645674801697989 -0.38644133236760531 0 -0.46202672064839212 -0.40007602488395211 0 -0.44257020456291563 -0.38918913383950271 0 -0.46202672064839212 -0.40007602488395211 0 -0.44257020456291563 -0.38918913383950271 0 -0.44727608925983742 -0.41095911152778891 0 -0.46202672064839212 -0.40007602488395211 0 -0.44257020456291563 -0.38918913383950271 0 -0.44257020456291563 -0.38918913383950271 0 -0.44727608925983742 -0.41095911152778891 0 -0.43479358559901082 -0.4041454901736512 0 -0.44257020456291563 -0.38918913383950271 0 -0.4540003998136638 -0.37455519391687309 0 -0.44172858264042247 -0.37082207246888088 0 -0.45645674801697989 -0.38644133236760531 0 -0.44257020456291563 -0.38918913383950271 0 -0.4540003998136638 -0.37455519391687309 0 -0.46202672064839212 -0.40007602488395211 0 -0.45555437223955858 -0.42914059360647611 0 -0.44727608925983742 -0.41095911152778891 0 -0.46202672064839212 -0.40007602488395211 0 -0.45555437223955858 -0.42914059360647611 0 -0.48101336032419229 -0.41069999664450008 0 -0.46202672064839212 -0.40007602488395211 0 -0.45555437223955858 -0.42914059360647611 0 -0.44727608925983742 -0.41095911152778891 0 -0.43867285131603428 -0.4271457417558665 0 -0.43676601469929588 -0.41441201227470881 0 -0.44727608925983742 -0.41095911152778891 0 -0.43676601469929588 -0.41441201227470881 0 -0.43479358559901082 -0.4041454901736512 0 -0.45555437223955858 -0.42914059360647611 0 -0.44727608925983742 -0.41095911152778891 0 -0.43867285131603428 -0.4271457417558665 0 -0.43867285131603428 -0.4271457417558665 0 -0.42681803064840879 -0.42717069814352421 0 -0.4263356171060747 -0.44269880333887462 0 -0.42681803064840879 -0.42717069814352421 0 -0.41531815884496182 -0.42985383783075998 0 -0.4263356171060747 -0.44269880333887462 0 -0.42681803064840879 -0.42717069814352421 0 -0.42624289495594048 -0.42089725947505818 0 -0.42083332353326591 -0.42146747131641099 0 -0.42681803064840879 -0.42717069814352421 0 -0.43096994786351572 -0.41951492446283251 0 -0.42624289495594048 -0.42089725947505818 0 -0.43867285131603428 -0.4271457417558665 0 -0.42681803064840879 -0.42717069814352421 0 -0.43096994786351572 -0.41951492446283251 0 -0.43867285131603428 -0.4271457417558665 0 -0.43676601469929588 -0.41441201227470881 0 -0.43096994786351572 -0.41951492446283251 0 -0.43676601469929588 -0.41441201227470881 0 -0.43096994786351572 -0.41951492446283251 0 -0.42907264086257813 -0.41311715872526122 0 -0.43676601469929588 -0.41441201227470881 0 -0.42907264086257813 -0.41311715872526122 0 -0.43479358559901082 -0.4041454901736512 0 -0.42907264086257813 -0.41311715872526122 0 -0.43479358559901082 -0.4041454901736512 0 -0.42460885511582858 -0.40417321677700252 0 -0.42907264086257813 -0.41311715872526122 0 -0.41997834854398469 -0.41180534796019508 0 -0.42907264086257813 -0.41311715872526122 0 -0.42635027777857132 -0.41543594397746519 0 -0.41997834854398469 -0.41180534796019508 0 -0.42907264086257813 -0.41311715872526122 0 -0.41997834854398469 -0.41180534796019508 0 -0.42460885511582858 -0.40417321677700252 0 -0.42635027777857132 -0.41543594397746519 0 -0.41997834854398469 -0.41180534796019508 0 -0.42635027777857132 -0.41543594397746519 0 -0.42083332353326591 -0.42146747131641099 0 -0.41997834854398469 -0.41180534796019508 0 -0.43096994786351572 -0.41951492446283251 0 -0.42624289495594048 -0.42089725947505818 0 -0.42635027777857132 -0.41543594397746519 0 -0.43096994786351572 -0.41951492446283251 0 -0.42907264086257813 -0.41311715872526122 0 -0.42635027777857132 -0.41543594397746519 0 -0.42624289495594048 -0.42089725947505818 0 -0.42635027777857132 -0.41543594397746519 0 -0.42083332353326591 -0.42146747131641099 0 -0.42083332353326591 -0.42146747131641099 0 -0.41997834854398469 -0.41180534796019508 0 -0.40992282953163789 -0.42011435591993562 0 -0.41997834854398469 -0.41180534796019508 0 -0.39756877647335259 -0.40857286797681719 0 -0.41997834854398469 -0.41180534796019508 0 -0.40992282953163789 -0.42011435591993562 0 -0.39756877647335259 -0.40857286797681719 0 -0.40992282953163789 -0.42011435591993562 0 -0.41531815884496182 -0.42985383783075998 0 -0.39591554026262499 -0.42887225451549271 0 -0.41531815884496182 -0.42985383783075998 0 -0.39591554026262499 -0.42887225451549271 0 -0.41160927495564159 -0.44339431233754628 0 -0.42083332353326591 -0.42146747131641099 0 -0.40992282953163789 -0.42011435591993562 0 -0.41531815884496182 -0.42985383783075998 0 -0.42681803064840879 -0.42717069814352421 0 -0.42083332353326591 -0.42146747131641099 0 -0.41531815884496182 -0.42985383783075998 0 -0.44257020456291563 -0.38918913383950271 0 -0.42311368847744002 -0.37830224279505142 0 -0.42594061475171041 -0.39368797999533162 0 -0.44257020456291563 -0.38918913383950271 0 -0.42311368847744002 -0.37830224279505142 0 -0.44172858264042247 -0.37082207246888088 0 -0.44257020456291563 -0.38918913383950271 0 -0.42311368847744002 -0.37830224279505142 0 -0.42311368847744002 -0.37830224279505142 0 -0.42594061475171041 -0.39368797999533162 0 -0.416587075656149 -0.38785930376960043 0 -0.44257020456291563 -0.38918913383950271 0 -0.42594061475171041 -0.39368797999533162 0 -0.43479358559901082 -0.4041454901736512 0 -0.42594061475171041 -0.39368797999533162 0 -0.43479358559901082 -0.4041454901736512 0 -0.42460885511582858 -0.40417321677700252 0 -0.41997834854398469 -0.41180534796019508 0 -0.41325908582185972 -0.39811010703057192 0 -0.39770572831670092 -0.39911486077581648 0 -0.41997834854398469 -0.41180534796019508 0 -0.39770572831670092 -0.39911486077581648 0 -0.42594061475171041 -0.39368797999533162 0 -0.42460885511582858 -0.40417321677700252 0 -0.41325908582185972 -0.39811010703057192 0 -0.41997834854398469 -0.41180534796019508 0 -0.42460885511582858 -0.40417321677700252 0 -0.41325908582185972 -0.39811010703057192 0 -0.42594061475171041 -0.39368797999533162 0 -0.41325908582185972 -0.39811010703057192 0 -0.416587075656149 -0.38785930376960043 0 -0.41325908582185972 -0.39811010703057192 0 -0.416587075656149 -0.38785930376960043 0 -0.40403491357358612 -0.38133688525744702 0 -0.42311368847744002 -0.37830224279505142 0 -0.40403491357358612 -0.38133688525744702 0 -0.40365717239196519 -0.36741535175059892 0 -0.42311368847744002 -0.37830224279505142 0 -0.416587075656149 -0.38785930376960043 0 -0.40403491357358612 -0.38133688525744702 0 -0.40403491357358612 -0.38133688525744702 0 -0.39190790742475001 -0.38540387676521748 0 -0.39770572831670092 -0.39911486077581648 0 -0.40403491357358612 -0.38133688525744702 0 -0.39190790742475001 -0.38540387676521748 0 -0.3904578797192948 -0.37473938743617019 0 -0.41325908582185972 -0.39811010703057192 0 -0.40403491357358612 -0.38133688525744702 0 -0.39770572831670092 -0.39911486077581648 0 -0.39770572831670092 -0.39911486077581648 0 -0.37543310808941849 -0.38642437359143528 0 -0.39770572831670092 -0.39911486077581648 0 -0.37515920440272033 -0.40534038799344108 0 -0.37543310808941849 -0.38642437359143528 0 -0.39770572831670092 -0.39911486077581648 0 -0.37515920440272033 -0.40534038799344108 0 -0.39756877647335259 -0.40857286797681719
[...]
<PointData Scalars="" Vectors="displacement," Tensors="">
<DataArray type="Float64" Name="displacement" NumberOfComponents="3" format="ascii">
-0.034997102006871166 -2.6042926074362894e-07 0 -0.034105868196297136 -0.00016999321339418393 0 -0.034997644311652955 -7.3022196367543186e-07 0 -0.034997102006871166 -2.6042926074362894e-07 0 -0.033457698712475732 -0.00010905035755398884 0 -0.034105868196297136 -0.00016999321339418393 0 -0.034997102006871166 -2.6042926074362894e-07 0 -0.033457698712475732 -0.00010905035755398884 0 -0.031404200709067555 -2.2792889733456184e-07 0 -0.033457698712475732 -0.00010905035755398884 0 -0.031404200709067555 -2.2792889733456184e-07 0 -0.032814200177592012 0.00011379633160053974 0 -0.031404200709067555 -2.2792889733456184e-07 0 -0.032814200177592012 0.00011379633160053974 0 -0.03119226119073306 -6.6625042400969366e-05 0 -0.033108065187899119 0.00025569207597174882 0 -0.033254507614154008 0.00025883186151904615 0 -0.032814200177592012 0.00011379633160053974 0 -0.032086459046259862 0.00044730287331853842 0 -0.032022500758071018 0.00014509853540545071 0 -0.032814200177592012 0.00011379633160053974 0 -0.032022500758071018 0.00014509853540545071 0 -0.032134130935043852 4.5074280053035106e-06 0 -0.033457698712475732 -0.00010905035755398884 0 -0.032814200177592012 0.00011379633160053974 0 -0.034105868196297136 -0.00016999321339418393 0 -0.032814200177592012 0.00011379633160053974 0 -0.034105868196297136 -0.00016999321339418393 0 -0.034441087510076802 0.00029075324689642961 0 -0.034105868196297136 -0.00016999321339418393 0 -0.034888199527328523 -2.0637438514517286e-05 0 -0.034441087510076802 0.00029075324689642961 0 -0.034105868196297136 -0.00016999321339418393 0 -0.034997644311652955 -7.3022196367543186e-07 0 -0.034888199527328523 -2.0637438514517286e-05 0 -0.034999997649002496 2.142209397941945e-10 0 -0.034997128299493946 -5.2231291103253326e-07 0 -0.034999996247931313 -7.1607387238141045e-10 0 -0.034998812668184151 4.7823197184167575e-07 0 -0.034413075695844224 0.00015543168300046579 0 -0.034999996247931313 -7.1607387238141045e-10 0 -0.034996631329311863 -1.052198012955917e-06 0 -0.034998414450380114 -1.8777751019234373e-06 0 -0.034999996247931313 -7.1607387238141045e-10 0 -0.034999994725287482 -3.0404579913001766e-09 0 -0.034998414450380114 -1.8777751019234373e-06 0 -0.034997128299493946 -5.2231291103253326e-07 0 -0.034999996247931313 -7.1607387238141045e-10 0 -0.034996631329311863 -1.052198012955917e-06 0 -0.034997128299493946 -5.2231291103253326e-07 0 -0.034996631329311863 -1.052198012955917e-06 0 -0.034993087623784912 -6.1307193511473437e-07 0 -0.034413075695844224 0.00015543168300046579 0 -0.033505974741780041 0.00018968071523277029 0 -0.034996631329311863 -1.052198012955917e-06 0 -0.034995707313844576 -1.0355224748171031e-06 0 -0.034993087623784912 -6.1307193511473437e-07 0 -0.034996631329311863 -1.052198012955917e-06 0 -0.034995707313844576 -1.0355224748171031e-06 0 -0.034998414450380114 -1.8777751019234373e-06 0 -0.034007666524202534 9.1735495703712969e-05 0 -0.033505974741780041 0.00018968071523277029 0 -0.033089655979713389 0.00020443128388052486 0 -0.032927768798506771 0.00041097255957488579 0 -0.032690012148087519 0.00031473222042017757 0 -0.033089655979713389 0.00020443128388052486 0 -0.032927768798506771 0.00041097255957488579 0 -0.033147621267105111 0.00046355626293226857 0 -0.032927768798506771 0.00041097255957488579 0 -0.032690012148087519 0.00031473222042017757 0 -0.032887575892141245 0.00065680359421022017 0 -0.031647955281630814 0.00054504783678673062 0 -0.031474645569590558 0.00026645982754234989 0 -0.031810116211238589 0.00031871277046204878 0 -0.033505974741780041 0.00018968071523277029 0 -0.032532260527402213 0.00036040552683344509 0 -0.031474645569590558 0.00026645982754234989 0 -0.031810116211238589 0.00031871277046204878 0 -0.031709903774324963 0.00014731671139892405 0 -0.032887575892141245 0.00065680359421022017 0 -0.033147621267105111 0.00046355626293226857 0 -0.033213480275495116 0.00067354264839019284 0 -0.032927768798506771 0.00041097255957488579 0 -0.032887575892141245 0.00065680359421022017 0 -0.033147621267105111 0.00046355626293226857 0 -0.031647955281630814 0.00054504783678673062 0 -0.032086459046259862 0.00044730287331853842 0 -0.031810116211238589 0.00031871277046204878 0 -0.033505974741780041 0.00018968071523277029 0 -0.033254507614154008 0.00025883186151904615 0 -0.034888199527328523 -2.0637438514517286e-05 0 -0.035012250505092046 0.0002565717312084958 0 -0.034441087510076802 0.00029075324689642961 0 -0.031810116211238589 0.00031871277046204878 0 -0.032022500758071018 0.00014509853540545071 0 -0.03187296522267366 0.00016477026068674683 0 -0.031810116211238589 0.00031871277046204878 0 -0.03187296522267366 0.00016477026068674683 0 -0.031709903774324963 0.00014731671139892405 0 -0.032086459046259862 0.00044730287331853842 0 -0.031810116211238589 0.00031871277046204878 0 -0.032022500758071018 0.00014509853540545071 0 -0.032022500758071018 0.00014509853540545071 0 -0.032017984465895433 6.1884611464599161e-05 0 -0.032134130935043852 4.5074280053035106e-06 0 -0.032017984465895433 6.1884611464599161e-05 0 -0.032029527072817934 7.2083242655864485e-05 0 -0.032134130935043852 4.5074280053035106e-06 0 -0.032017984465895433 6.1884611464599161e-05 0 -0.031967891445363099 6.3992611039490171e-05 0 -0.031978919448886547 5.9992044833496213e-05 0 -0.032017984465895433 6.1884611464599161e-05 0 -0.031949400574057756 9.4018205193362796e-05 0 -0.031967891445363099 6.3992611039490171e-05 0 -0.032022500758071018 0.00014509853540545071 0 -0.032017984465895433 6.1884611464599161e-05 0 -0.031949400574057756 9.4018205193362796e-05 0 -0.032022500758071018 0.00014509853540545071 0 -0.03187296522267366 0.00016477026068674683 0 -0.031949400574057756 9.4018205193362796e-05 0 -0.03187296522267366 0.00016477026068674683 0 -0.031949400574057756 9.4018205193362796e-05 0 -0.031872599487133758 7.3778343980199383e-05 0 -0.03187296522267366 0.00016477026068674683 0 -0.031872599487133758 7.3778343980199383e-05 0 -0.031709903774324963 0.00014731671139892405 0 -0.031872599487133758 7.3778343980199383e-05 0 -0.031709903774324963 0.00014731671139892405 0 -0.031706002293958958 -1.0670111633742348e-05 0 -0.028719339245256284 0.00073042044369929591 0 -0.028615206511245921 0.00077762678861869922 0 -0.031872599487133758 7.3778343980199383e-05 0 -0.031922974975112532 5.0000544865917246e-05 0 -0.031872346263171578 -3.1848449880801507e-05 0 -0.031872599487133758 7.3778343980199383e-05 0 -0.031835507263180789 -8.7326874429065706e-05 0 -0.031706002293958958 -1.0670111633742348e-05 0 -0.028715793603577778 0.00081547105916050322 0 -0.028615206511245921 0.00077762678861869922 0 -0.031922974975112532 5.0000544865917246e-05 0 -0.031978919448886547 5.9992044833496213e-05 0 -0.031955921088030102 6.2524823045357941e-05 0 -0.031949400574057756 9.4018205193362796e-05 0 -0.031967891445363099 6.3992611039490171e-05 0 -0.031922974975112532 5.0000544865917246e-05 0 -0.031949400574057756 9.4018205193362796e-05 0 -0.031872599487133758 7.3778343980199383e-05 0 -0.031922974975112532 5.0000544865917246e-05 0 -0.031967891445363099 6.3992611039490171e-05 0 -0.031922974975112532 5.0000544865917246e-05 0 -0.031978919448886547 5.9992044833496213e-05 0 -0.031978919448886547 5.9992044833496213e-05 0 -0.031955921088030102 6.2524823045357941e-05 0 -0.031980679904696233 6.2596857286067149e-05 0 -0.028615206511245921 0.00077762678861869922 0 -0.02784726142947436 0.0005654464494348518 0 -0.031955921088030102 6.2524823045357941e-05 0 -0.031980679904696233 6.2596857286067149e-05 0 -0.031955897363543179 6.1151586402689371e-05 0 -0.031980679904696233 6.2596857286067149e-05 0 -0.032029527072817934 7.2083242655864485e-05 0 -0.031990767938392992 6.5965865226606734e-05 0 -0.032029527072817934 7.2083242655864485e-05 0 -0.031990767938392992 6.5965865226606734e-05 0 -0.032051622480115519 0.00013224143717280654 0 -0.031978919448886547 5.9992044833496213e-05 0 -0.031980679904696233 6.2596857286067149e-05 0 -0.032029527072817934 7.2083242655864485e-05 0 -0.032017984465895433 6.1884611464599161e-05 0 -0.031978919448886547 5.9992044833496213e-05 0 -0.032029527072817934 7.2083242655864485e-05 0 -0.031474645569590558 0.00026645982754234989 0 -0.031266333866328377 -3.3961571514415148e-05 0 -0.031530148362252153 9.7477101276203066e-06 0 -0.032887575892141245 0.00065680359421022017 0 -0.033083968897887887 0.00097644786593557441 0 -0.033213480275495116 0.00067354264839019284 0 -0.032532260527402213 0.00036040552683344509 0 -0.031794453071997159 0.00064162510030805369 0 -0.031266333866328377 -3.3961571514415148e-05 0 -0.031530148362252153 9.7477101276203066e-06 0 -0.03142121263544316 -0.00014097400981882699 0 -0.031474645569590558 0.00026645982754234989 0 -0.031530148362252153 9.7477101276203066e-06 0 -0.031709903774324963 0.00014731671139892405 0 -0.031530148362252153 9.7477101276203066e-06 0 -0.031709903774324963 0.00014731671139892405 0 -0.031706002293958958 -1.0670111633742348e-05 0 -0.031835507263180789 -8.7326874429065706e-05 0 -0.031595850117986359 -0.00019767898357369418 0 -0.031606250908048063 -0.00046227727615718737 0 -0.028615206511245921 0.00077762678861869922 0 -0.027946054551482705 0.00080176137252042023 0 -0.031530148362252153 9.7477101276203066e-06 0 -0.031706002293958958 -1.0670111633742348e-05 0 -0.031595850117986359 -0.00019767898357369418 0 -0.031835507263180789 -8.7326874429065706e-05 0 -0.031706002293958958 -1.0670111633742348e-05 0 -0.031595850117986359 -0.00019767898357369418 0 -0.031530148362252153 9.7477101276203066e-06 0 -0.031595850117986359 -0.00019767898357369418 0 -0.03142121263544316 -0.00014097400981882699 0 -0.031595850117986359 -0.00019767898357369418 0 -0.03142121263544316 -0.00014097400981882699 0 -0.031293497110523587 -0.00034369183858395724 0 -0.031266333866328377 -3.3961571514415148e-05 0 -0.031293497110523587 -0.00034369183858395724 0 -0.031073310829449745 -0.00034638467087821337 0 -0.031266333866328377 -3.3961571514415148e-05 0 -0.03142121263544316 -0.00014097400981882699 0 -0.031293497110523587 -0.00034369183858395724 0 -0.031293497110523587 -0.00034369183858395724 0 -0.031352681939609092 -0.00057220224580228267 0 -0.031606250908048063 -0.00046227727615718737 0 -0.031293497110523587 -0.00034369183858395724 0 -0.031352681939609092 -0.00057220224580228267 0 -0.0311457730428777 -0.00060058825618290203 0 -0.031595850117986359 -0.00019767898357369418 0 -0.031293497110523587 -0.00034369183858395724 0 -0.031606250908048063 -0.00046227727615718737 0 -0.027946054551482705 0.00080176137252042023 0 -0.026211258489009223 0.00086911639908013956 0 -0.027294294566358703 0.00070839425156179938 0 -0.027392024513334477 0.00033747945747815156 0 -0.027080333249572153 0.0003424946629182788 0 -0.027294294566358703 0.00070839425156179938 0 -0.027392024513334477 0.00033747945747815156 0 -0.027450547080262674 0.00070592293221944009 0 -0.026242102334362732 0.00028846356648620677 0 -0.026211258489009223 0.00086911639908013956 0 -0.031361607082393779 -0.00088608618500694673 0 -0.0311457730428777 -0.00060058825618290203 0 -0.031026810933431379 -0.00088783894222177289 0 -0.031352681939609092 -0.00057220224580228267 0 -0.031361607082393779 -0.00088608618500694673 0 -0.0311457730428777 -0.00060058825618290203 0 -0.026211258489009223 0.00086911639908013956 0 -0.027643875417584368 0.00071297927012975405 0 -0.031352681939609092 -0.00057220224580228267 0 -0.031606250908048063 -0.00046227727615718737 0 -0.031361607082393779 -0.00088608618500694673 0 -0.027511323313725529 0.0010737132801777376 0 -0.027294294566358703 0.00070839425156179938 0 -0.027450547080262674 0.00070592293221944009 0 -0.031980679904696233 6.2596857286067149e-05 0 -0.031990767938392992 6.5965865226606734e-05 0 -0.031955897363543179 6.1151586402689371e-05 0 -0.031931167987399242 3.2430035641654687e-05 0 -0.031990767938392992 6.5965865226606734e-05 0 -0.031955897363543179 6.1151586402689371e-05 0 -0.026242102334362732 0.00028846356648620677 0 -0.02784726142947436 0.0005654464494348518 0 -0.031931167987399242 3.2430035641654687e-05 0 -0.031990767938392992 6.5965865226606734e-05 0 -0.031990707310687296 3.7446435097877642e-05 0 -0.031990767938392992 6.5965865226606734e-05 0 -0.032024820891664009 7.2642334014618508e-05 0 -0.031990707310687296 3.7446435097877642e-05 0 -0.032024820891664009 7.2642334014618508e-05 0 -0.032029965181634229 4.9037046683358234e-05 0 -0.031990707310687296 3.7446435097877642e-05 0 -0.031990767938392992 6.5965865226606734e-05 0 -0.032024820891664009 7.2642334014618508e-05 0 -0.032051622480115519 0.00013224143717280654 0 -0.032024820891664009 7.2642334014618508e-05 0 -0.032046081645870444 9.9742444396930287e-05 0 -0.032051622480115519 0.00013224143717280654 0 -0.031629590472538702 0.00057939134757141908 0 -0.029685136055863297 0.00071448083682986493 0 -0.031035883013684117 0.00019363629977192873 0 -0.023869932503918074 0.0015615566769687651 0 -0.024062229992128155 0.00081283219189044081 0 -0.02495009017391913 0.0010060102363020679 0 -0.02826465786087862 -0.00058403186194154314 0 -0.027397107736156018 -6.3854802170383424e-05 0 -0.02826465786087862 -0.00058403186194154314 0 -0.028273969154971306 -0.00058074289917121565 0 -0.02826465786087862 -0.00058403186194154314 0 -0.027486983404197293 0.00014510351075142512 0 -0.032024820891664009 7.2642334014618508e-05 0 -0.032046081645870444 9.9742444396930287e-05 0 -0.03203638407046043 6.8976275412240782e-05 0 -0.032024820891664009 7.2642334014618508e-05 0 -0.03203638407046043 6.8976275412240782e-05 0 -0.032029965181634229 4.9037046683358234e-05 0 -0.027486983404197293 0.00014510351075142512 0 -0.026623474436792745 0.00072818065813652242 0 -0.024062229992128155 0.00081283219189044081 0 -0.024572950662186094 0.00053335957542019106 0 -0.024258446280956157 3.206954692380136e-05 0 -0.024572950662186094 0.00053335957542019106 0 -0.02495009017391913 0.0010060102363020679 0 -0.024864767710618459 6.3383064551319272e-06 0 -0.02495009017391913 0.0010060102363020679 0 -0.025538229477386126 -0.00012618935412350265 0 -0.024864767710618459 6.3383064551319272e-06 0 -0.024572950662186094 0.00053335957542019106 0 -0.024864767710618459 6.3383064551319272e-06 0 -0.024258446280956157 3.206954692380136e-05 0 -0.024062229992128155 0.00081283219189044081 0 -0.024572950662186094 0.00053335957542019106 0 -0.02495009017391913 0.0010060102363020679 0 -0.026667550402329682 1.4918137481262734e-07 0 -0.027397107736156018 -6.3854802170383424e-05 0 -0.026663337786316157 1.7464857823762334e-06 0 -0.02495009017391913 0.0010060102363020679 0 -0.025538229477386126 -0.00012618935412350265 0 -0.02666972783825847 2.8029191559031798e-06 0 -0.029685136055863297 0.00071448083682986493 0 -0.028698731399351973 -5.3119723193788105e-07 0 -0.029685136055863297 0.00071448083682986493 0 -0.031035883013684117 0.00019363629977192873 0 -0.028698731399351973 -5.3119723193788105e-07 0 -0.031035883013684117 0.00019363629977192873 0 -0.028698731399351973 -5.3119723193788105e-07 0 -0.03119226119073306 -6.6625042400969366e-05 0 -0.031404200709067555 -2.2792889733456184e-07 0 -0.028698731399351973 -5.3119723193788105e-07 0 -0.03119226119073306 -6.6625042400969366e-05 0 -0.031035883013684117 0.00019363629977192873 0 -0.03119226119073306 -6.6625042400969366e-05 0 -0.031889111797444615 2.0947422029410887e-05 0 -0.032814200177592012 0.00011379633160053974 0 -0.03119226119073306 -6.6625042400969366e-05 0 -0.031889111797444615 2.0947422029410887e-05 0 -0.032814200177592012 0.00011379633160053974 0 -0.031889111797444615 2.0947422029410887e-05 0 -0.032134130935043852 4.5074280053035106e-06 0 -0.031889111797444615 2.0947422029410887e-05 0 -0.032134130935043852 4.5074280053035106e-06 0 -0.03187425419657549 0.00011740527910202097 0 -0.032134130935043852 4.5074280053035106e-06 0 -0.032051622480115519 0.00013224143717280654 0 -0.03187425419657549 0.00011740527910202097 0 -0.032029527072817934 7.2083242655864485e-05 0 -0.032134130935043852 4.5074280053035106e-06 0 -0.032051622480115519 0.00013224143717280654 0 -0.031670623739138141 0.00054306145435507706 0 -0.032051622480115519 0.00013224143717280654 0 -0.031687236409522486 0.00044736817874831825 0 -0.032051622480115519 0.00013224143717280654 0 -0.031687236409522486 0.00044736817874831825 0 -0.03187425419657549 0.00011740527910202097 0 -0.02826465786087862 -0.00058403186194154314 0 -0.029180035537226309 -0.00081003474471424454 0 -0.031035883013684117 0.00019363629977192873 0 -0.031687236409522486 0.00044736817874831825 0 -0.03187425419657549 0.00011740527910202097 0 -0.031629590472538702 0.00057939134757141908 0 -0.031035883013684117 0.00019363629977192873 0 -0.031687236409522486 0.00044736817874831825 0 -0.031035883013684117 0.00019363629977192873 0 -0.031889111797444615 2.0947422029410887e-05 0 -0.03187425419657549 0.00011740527910202097 0 -0.032260125890082932 0.00025869114498563756 0 -0.030728781144843575 0.00092194840171377673 0 -0.034765957129935375 -0.00039697834645663051 0 -0.034818277572017962 -0.0016765480307784377 0 -0.034139513058623269 -0.00064580522674608518 0 -0.034919542436851546 0.00016193988306213171 0 -0.034966682773472306 0.00012408279268889526 0 -0.034971297592131516 0.00021759495814193503 0 -0.034919542436851546 0.00016193988306213171 0 -0.034910203677432569 0.00024151509700336368 0 -0.034971297592131516 0.00021759495814193503 0 -0.034919542436851546 0.00016193988306213171 0 -0.034861582806780748 0.00022791965927361068 0 -0.034910203677432569 0.00024151509700336368 0 -0.034919542436851546 0.00016193988306213171 0 -0.034933723599026717 8.3436184030808556e-05 0 -0.03492697209793752 7.6841541077852518e-05 0 -0.034919542436851546 0.00016193988306213171 0 -0.034933723599026717 8.3436184030808556e-05 0 -0.034966682773472306 0.00012408279268889526 0 -0.032260125890082932 0.00025869114498563756 0 -0.032718666169857143 0.00021902085165136865 0 -0.034933723599026717 8.3436184030808556e-05 0 -0.034966682773472306 0.00012408279268889526 0 -0.034889209733906766 6.5003028054974591e-05 0 -0.034765957129935375 -0.00039697834645663051 0 -0.034889209733906766 6.5003028054974591e-05 0 -0.034210973655011662 4.7463719493287231e-05 0 -0.034889209733906766 6.5003028054974591e-05 0 -0.034999910213764453 1.2452362117287007e-07 0 -0.034953189136979888 4.1424394439544247e-05 0 -0.034889209733906766 6.5003028054974591e-05 0 -0.034999910213764453 1.2452362117287007e-07 0 -0.034698858640336616 7.7055239302464373e-05 0 -0.034999910213764453 1.2452362117287007e-07 0 -0.034953189136979888 4.1424394439544247e-05 0 -0.034999905748191409 -8.2671077506591018e-09 0 -0.034933723599026717 8.3436184030808556e-05 0 -0.034889209733906766 6.5003028054974591e-05 0 -0.034953189136979888 4.1424394439544247e-05 0 -0.034933723599026717 8.3436184030808556e-05 0 -0.034953189136979888 4.1424394439544247e-05 0 -0.03492697209793752 7.6841541077852518e-05 0 -0.03492697209793752 7.6841541077852518e-05 0 -0.034949000595546481 1.0201080903992443e-05 0 -0.034898407446723123 5.7688548853385674e-05 0 -0.034953189136979888 4.1424394439544247e-05 0 -0.03492697209793752 7.6841541077852518e-05 0 -0.034949000595546481 1.0201080903992443e-05 0 -0.034999905748191409 -8.2671077506591018e-09 0 -0.034949000595546481 1.0201080903992443e-05 0 -0.034999889958189555 1.1247761792029797e-08 0 -0.034953189136979888 4.1424394439544247e-05 0 -0.034999905748191409 -8.2671077506591018e-09 0 -0.034949000595546481 1.0201080903992443e-05 0 -0.034949000595546481 1.0201080903992443e-05 0 -0.034999889958189555 1.1247761792029797e-08 0 -0.034920531415642428 -1.6317998980382028e-05 0 -0.034920531415642428 -1.6317998980382028e-05 0 -0.034898407446723123 5.7688548853385674e-05 0 -0.034767574939083008 4.9568822184394098e-05 0 -0.034949000595546481 1.0201080903992443e-05 0 -0.034920531415642428 -1.6317998980382028e-05 0 -0.034898407446723123 5.7688548853385674e-05 0 -0.034898407446723123 5.7688548853385674e-05 0 -0.034807023154805342 0.00013682815250345604 0 -0.034767574939083008 4.9568822184394098e-05 0 -0.03480702315480