<?xml version="1.0"?>
<VTKFile type="UnstructuredGrid" version="0.1" byte_order="LittleEndian">
<UnstructuredGrid>
<Piece NumberOfPoints="31898" NumberOfCells="11152">
<Points>
<DataArray type="Float64" NumberOfComponents="3" format="ascii">
-0.5 -0.5 0 -0.47620991077874902 -0.44978878706170539 0 -0.49999999999999473 -0.42132396840504388 0 -0.5 -0.5 0 -0.47160970827802529 -0.4793630013852106 0 -0.47620991077874902 -0.44978878706170539 0 -0.5 -0.5 0 -0.47160970827802529 -0.4793630013852106 0 -0.44860394795025399 -0.5 0 -0.47160970827802529 -0.4793630013852106 0 -0.44860394795025399 -0.5 0 -0.4490820238307246 -0.45820516232899983 0 -0.44860394795025399 -0.5 0 -0.4490820238307246 -0.45820516232899983 0 -0.42881687682924802 -0.47781464288736519 0 -0.4490820238307246 -0.45820516232899983 0 -0.45555437223955858 -0.42914059360647611 0 -0.4490820238307246 -0.45820516232899983 0 -0.45555437223955858 -0.42914059360647611 0 -0.43867285131603428 -0.4271457417558665 0 -0.4490820238307246 -0.45820516232899983 0 -0.43867285131603428 -0.4271457417558665 0 -0.4263356171060747 -0.44269880333887462 0 -0.47160970827802529 -0.4793630013852106 0 -0.4490820238307246 -0.45820516232899983 0 -0.47620991077874902 -0.44978878706170539 0 -0.4490820238307246 -0.45820516232899983 0 -0.47620991077874902 -0.44978878706170539 0 -0.45555437223955858 -0.42914059360647611 0 -0.47620991077874902 -0.44978878706170539 0 -0.48101336032419229 -0.41069999664450008 0 -0.45555437223955858 -0.42914059360647611 0 -0.47620991077874902 -0.44978878706170539 0 -0.49999999999999473 -0.42132396840504388 0 -0.48101336032419229 -0.41069999664450008 0 -0.49999999999999473 -0.42132396840504388 0 -0.48101336032419229 -0.41069999664450008 0 -0.5 -0.393886241813306 0 -0.49999999999999473 -0.42132396840504388 0 -0.48101336032419229 -0.41069999664450008 0 -0.5 -0.393886241813306 0 -0.47854472220918332 -0.38978458738689759 0 -0.48422759779560409 -0.37130120630367158 0 -0.5 -0.393886241813306 0 -0.5 -0.36644851522156802 0 -0.48422759779560409 -0.37130120630367158 0 -0.48101336032419229 -0.41069999664450008 0 -0.5 -0.393886241813306 0 -0.47854472220918332 -0.38978458738689759 0 -0.48101336032419229 -0.41069999664450008 0 -0.47854472220918332 -0.38978458738689759 0 -0.46202672064839212 -0.40007602488395211 0 -0.48101336032419229 -0.41069999664450008 0 -0.46202672064839212 -0.40007602488395211 0 -0.47854472220918332 -0.38978458738689759 0 -0.46725442735267431 -0.37660061361585562 0 -0.46202672064839212 -0.40007602488395211 0 -0.47854472220918332 -0.38978458738689759 0 -0.46725442735267431 -0.37660061361585562 0 -0.48422759779560409 -0.37130120630367158 0 -0.46725442735267431 -0.37660061361585562 0 -0.46202672064839212 -0.40007602488395211 0 -0.46725442735267431 -0.37660061361585562 0 -0.45645674801697989 -0.38644133236760531 0 -0.46202672064839212 -0.40007602488395211 0 -0.46725442735267431 -0.37660061361585562 0 -0.45645674801697989 -0.38644133236760531 0 -0.4540003998136638 -0.37455519391687309 0 -0.45645674801697989 -0.38644133236760531 0 -0.46202672064839212 -0.40007602488395211 0 -0.44257020456291563 -0.38918913383950271 0 -0.46202672064839212 -0.40007602488395211 0 -0.44257020456291563 -0.38918913383950271 0 -0.44727608925983742 -0.41095911152778891 0 -0.46202672064839212 -0.40007602488395211 0 -0.44257020456291563 -0.38918913383950271 0 -0.44257020456291563 -0.38918913383950271 0 -0.44727608925983742 -0.41095911152778891 0 -0.43479358559901082 -0.4041454901736512 0 -0.44257020456291563 -0.38918913383950271 0 -0.4540003998136638 -0.37455519391687309 0 -0.44172858264042247 -0.37082207246888088 0 -0.45645674801697989 -0.38644133236760531 0 -0.44257020456291563 -0.38918913383950271 0 -0.4540003998136638 -0.37455519391687309 0 -0.46202672064839212 -0.40007602488395211 0 -0.45555437223955858 -0.42914059360647611 0 -0.44727608925983742 -0.41095911152778891 0 -0.46202672064839212 -0.40007602488395211 0 -0.45555437223955858 -0.42914059360647611 0 -0.48101336032419229 -0.41069999664450008 0 -0.46202672064839212 -0.40007602488395211 0 -0.45555437223955858 -0.42914059360647611 0 -0.44727608925983742 -0.41095911152778891 0 -0.43867285131603428 -0.4271457417558665 0 -0.43676601469929588 -0.41441201227470881 0 -0.44727608925983742 -0.41095911152778891 0 -0.43676601469929588 -0.41441201227470881 0 -0.43479358559901082 -0.4041454901736512 0 -0.45555437223955858 -0.42914059360647611 0 -0.44727608925983742 -0.41095911152778891 0 -0.43867285131603428 -0.4271457417558665 0 -0.43867285131603428 -0.4271457417558665 0 -0.42681803064840879 -0.42717069814352421 0 -0.4263356171060747 -0.44269880333887462 0 -0.42681803064840879 -0.42717069814352421 0 -0.41531815884496182 -0.42985383783075998 0 -0.4263356171060747 -0.44269880333887462 0 -0.42681803064840879 -0.42717069814352421 0 -0.42624289495594048 -0.42089725947505818 0 -0.42083332353326591 -0.42146747131641099 0 -0.42681803064840879 -0.42717069814352421 0 -0.43096994786351572 -0.41951492446283251 0 -0.42624289495594048 -0.42089725947505818 0 -0.43867285131603428 -0.4271457417558665 0 -0.42681803064840879 -0.42717069814352421 0 -0.43096994786351572 -0.41951492446283251 0 -0.43867285131603428 -0.4271457417558665 0 -0.43676601469929588 -0.41441201227470881 0 -0.43096994786351572 -0.41951492446283251 0 -0.43676601469929588 -0.41441201227470881 0 -0.43096994786351572 -0.41951492446283251 0 -0.42907264086257813 -0.41311715872526122 0 -0.43676601469929588 -0.41441201227470881 0 -0.42907264086257813 -0.41311715872526122 0 -0.43479358559901082 -0.4041454901736512 0 -0.42907264086257813 -0.41311715872526122 0 -0.43479358559901082 -0.4041454901736512 0 -0.42460885511582858 -0.40417321677700252 0 -0.42907264086257813 -0.41311715872526122 0 -0.41997834854398469 -0.41180534796019508 0 -0.42907264086257813 -0.41311715872526122 0 -0.42635027777857132 -0.41543594397746519 0 -0.41997834854398469 -0.41180534796019508 0 -0.42907264086257813 -0.41311715872526122 0 -0.41997834854398469 -0.41180534796019508 0 -0.42460885511582858 -0.40417321677700252 0 -0.42635027777857132 -0.41543594397746519 0 -0.41997834854398469 -0.41180534796019508 0 -0.42635027777857132 -0.41543594397746519 0 -0.42083332353326591 -0.42146747131641099 0 -0.41997834854398469 -0.41180534796019508 0 -0.43096994786351572 -0.41951492446283251 0 -0.42624289495594048 -0.42089725947505818 0 -0.42635027777857132 -0.41543594397746519 0 -0.43096994786351572 -0.41951492446283251 0 -0.42907264086257813 -0.41311715872526122 0 -0.42635027777857132 -0.41543594397746519 0 -0.42624289495594048 -0.42089725947505818 0 -0.42635027777857132 -0.41543594397746519 0 -0.42083332353326591 -0.42146747131641099 0 -0.42083332353326591 -0.42146747131641099 0 -0.41997834854398469 -0.41180534796019508 0 -0.40992282953163789 -0.42011435591993562 0 -0.41997834854398469 -0.41180534796019508 0 -0.39756877647335259 -0.40857286797681719 0 -0.41997834854398469 -0.41180534796019508 0 -0.40992282953163789 -0.42011435591993562 0 -0.39756877647335259 -0.40857286797681719 0 -0.40992282953163789 -0.42011435591993562 0 -0.41531815884496182 -0.42985383783075998 0 -0.39591554026262499 -0.42887225451549271 0 -0.41531815884496182 -0.42985383783075998 0 -0.39591554026262499 -0.42887225451549271 0 -0.41160927495564159 -0.44339431233754628 0 -0.42083332353326591 -0.42146747131641099 0 -0.40992282953163789 -0.42011435591993562 0 -0.41531815884496182 -0.42985383783075998 0 -0.42681803064840879 -0.42717069814352421 0 -0.42083332353326591 -0.42146747131641099 0 -0.41531815884496182 -0.42985383783075998 0 -0.44257020456291563 -0.38918913383950271 0 -0.42311368847744002 -0.37830224279505142 0 -0.42594061475171041 -0.39368797999533162 0 -0.44257020456291563 -0.38918913383950271 0 -0.42311368847744002 -0.37830224279505142 0 -0.44172858264042247 -0.37082207246888088 0 -0.44257020456291563 -0.38918913383950271 0 -0.42311368847744002 -0.37830224279505142 0 -0.42311368847744002 -0.37830224279505142 0 -0.42594061475171041 -0.39368797999533162 0 -0.416587075656149 -0.38785930376960043 0 -0.44257020456291563 -0.38918913383950271 0 -0.42594061475171041 -0.39368797999533162 0 -0.43479358559901082 -0.4041454901736512 0 -0.42594061475171041 -0.39368797999533162 0 -0.43479358559901082 -0.4041454901736512 0 -0.42460885511582858 -0.40417321677700252 0 -0.41997834854398469 -0.41180534796019508 0 -0.41325908582185972 -0.39811010703057192 0 -0.39770572831670092 -0.39911486077581648 0 -0.41997834854398469 -0.41180534796019508 0 -0.39770572831670092 -0.39911486077581648 0 -0.42594061475171041 -0.39368797999533162 0 -0.42460885511582858 -0.40417321677700252 0 -0.41325908582185972 -0.39811010703057192 0 -0.41997834854398469 -0.41180534796019508 0 -0.42460885511582858 -0.40417321677700252 0 -0.41325908582185972 -0.39811010703057192 0 -0.42594061475171041 -0.39368797999533162 0 -0.41325908582185972 -0.39811010703057192 0 -0.416587075656149 -0.38785930376960043 0 -0.41325908582185972 -0.39811010703057192 0 -0.416587075656149 -0.38785930376960043 0 -0.40403491357358612 -0.38133688525744702 0 -0.42311368847744002 -0.37830224279505142 0 -0.40403491357358612 -0.38133688525744702 0 -0.40365717239196519 -0.36741535175059892 0 -0.42311368847744002 -0.37830224279505142 0 -0.416587075656149 -0.38785930376960043 0 -0.40403491357358612 -0.38133688525744702 0 -0.40403491357358612 -0.38133688525744702 0 -0.39190790742475001 -0.38540387676521748 0 -0.39770572831670092 -0.39911486077581648 0 -0.40403491357358612 -0.38133688525744702 0 -0.39190790742475001 -0.38540387676521748 0 -0.3904578797192948 -0.37473938743617019 0 -0.41325908582185972 -0.39811010703057192 0 -0.40403491357358612 -0.38133688525744702 0 -0.39770572831670092 -0.39911486077581648 0 -0.39770572831670092 -0.39911486077581648 0 -0.37543310808941849 -0.38642437359143528 0 -0.39770572831670092 -0.39911486077581648 0 -0.37515920440272033 -0.40534038799344108 0 -0.37543310808941849 -0.38642437359143528 0 -0.39770572831670092 -0.39911486077581648 0 -0.37515920440272033 -0.40534038799344108 0 -0.39756877647335259 -0.40857286797681719
[...]
<PointData Scalars="" Vectors="displacement," Tensors="">
<DataArray type="Float64" Name="displacement" NumberOfComponents="3" format="ascii">
-1.6880533355186868e-06 -0.034996801611665081 0 -0.00016970209673341884 -0.032715680540788043 0 3.5669534944920783e-06 -0.029500818664799575 0 -1.6880533355186868e-06 -0.034996801611665081 0 -0.00015559376641673404 -0.034196779495284546 0 -0.00016970209673341884 -0.032715680540788043 0 -1.6880533355186868e-06 -0.034996801611665081 0 -0.00015559376641673404 -0.034196779495284546 0 1.079567590466541e-08 -0.034999124265466579 0 -0.00015559376641673404 -0.034196779495284546 0 1.079567590466541e-08 -0.034999124265466579 0 -8.5206042607481478e-05 -0.034185859139141753 0 1.079567590466541e-08 -0.034999124265466579 0 -8.5206042607481478e-05 -0.034185859139141753 0 -6.6692775675535214e-05 -0.034749098693336353 0 -0.00031336505739619616 -0.032067564566406977 0 -3.1500801952228779e-05 -0.031171933760954902 0 -8.5206042607481478e-05 -0.034185859139141753 0 0.00035850888008981884 -0.034167495385772607 0 0.00038499094858228904 -0.03431702123335189 0 -8.5206042607481478e-05 -0.034185859139141753 0 0.00038499094858228904 -0.03431702123335189 0 0.00019051525035739358 -0.034534441006854856 0 -0.00015559376641673404 -0.034196779495284546 0 -8.5206042607481478e-05 -0.034185859139141753 0 -0.00016970209673341884 -0.032715680540788043 0 -8.5206042607481478e-05 -0.034185859139141753 0 -0.00016970209673341884 -0.032715680540788043 0 0.00061698372365231687 -0.03335890098137019 0 -0.00016970209673341884 -0.032715680540788043 0 0.0013132971499810425 -0.031613502282923089 0 0.00061698372365231687 -0.03335890098137019 0 -0.00016970209673341884 -0.032715680540788043 0 3.5669534944920783e-06 -0.029500818664799575 0 0.0013132971499810425 -0.031613502282923089 0 1.976772467428506e-06 -0.029489656014982796 0 0.00030059272489315003 -0.02719681671296742 0 -8.342766766830824e-07 -0.027572048010270581 0 1.0924357409453504e-06 -0.02949160148439425 0 0.00045374053948924457 -0.028996649417100433 0 -8.342766766830824e-07 -0.027572048010270581 0 -7.9019731510177217e-05 -0.026490738331385957 0 -0.00016702097926038365 -0.025782281440861012 0 -8.342766766830824e-07 -0.027572048010270581 0 -2.5386171621752616e-07 -0.025651174197515461 0 -0.00016702097926038365 -0.025782281440861012 0 0.00030059272489315003 -0.02719681671296742 0 -8.342766766830824e-07 -0.027572048010270581 0 -7.9019731510177217e-05 -0.026490738331385957 0 0.00030059272489315003 -0.02719681671296742 0 -7.9019731510177217e-05 -0.026490738331385957 0 0.00013193207906021489 -0.026235415724691659 0 0.00045374053948924457 -0.028996649417100433 0 0.00061160618021227002 -0.027987988580810232 0 -7.9019731510177217e-05 -0.026490738331385957 0 -0.00020526378380805645 -0.026004922003091156 0 0.00013193207906021489 -0.026235415724691659 0 -7.9019731510177217e-05 -0.026490738331385957 0 -0.00020526378380805645 -0.026004922003091156 0 -0.00016702097926038365 -0.025782281440861012 0 0.00036921070861008253 -0.025414668528062755 0 0.00061160618021227002 -0.027987988580810232 0 0.00036172621358402513 -0.020508860678077785 0 -1.3093847267310581e-05 -0.020901998457481485 0 -0.00050592619004625409 -0.020715884434425264 0 0.00036172621358402513 -0.020508860678077785 0 -1.3093847267310581e-05 -0.020901998457481485 0 0.00039769179631159212 -0.02096791008080956 0 -1.3093847267310581e-05 -0.020901998457481485 0 -0.00050592619004625409 -0.020715884434425264 0 -0.00012373223569705707 -0.021404823679692004 0 0.0003986866833942374 -0.034295656308473574 0 0.00024115340495519199 -0.034287254378994034 0 0.00042913374786230106 -0.034269430921056894 0 0.00061160618021227002 -0.027987988580810232 0 0.00038758704877917894 -0.0277034002227627 0 0.00024115340495519199 -0.034287254378994034 0 0.00042913374786230106 -0.034269430921056894 0 0.00040216289575694346 -0.034233562962883379 0 -0.00012373223569705707 -0.021404823679692004 0 0.00039769179631159212 -0.02096791008080956 0 0.00052419922477745982 -0.021421823977331167 0 -1.3093847267310581e-05 -0.020901998457481485 0 -0.00012373223569705707 -0.021404823679692004 0 0.00039769179631159212 -0.02096791008080956 0 0.0003986866833942374 -0.034295656308473574 0 0.00035850888008981884 -0.034167495385772607 0 0.00042913374786230106 -0.034269430921056894 0 0.00061160618021227002 -0.027987988580810232 0 -3.1500801952228779e-05 -0.031171933760954902 0 0.0013132971499810425 -0.031613502282923089 0 0.0020238343947395015 -0.032772167956216632 0 0.00061698372365231687 -0.03335890098137019 0 0.00042913374786230106 -0.034269430921056894 0 0.00038499094858228904 -0.03431702123335189 0 0.00045774862941069512 -0.034281641792434939 0 0.00042913374786230106 -0.034269430921056894 0 0.00045774862941069512 -0.034281641792434939 0 0.00040216289575694346 -0.034233562962883379 0 0.00035850888008981884 -0.034167495385772607 0 0.00042913374786230106 -0.034269430921056894 0 0.00038499094858228904 -0.03431702123335189 0 0.00038499094858228904 -0.03431702123335189 0 0.00036171136260569934 -0.034444911327275618 0 0.00019051525035739358 -0.034534441006854856 0 0.00036171136260569934 -0.034444911327275618 0 0.00032592194620545563 -0.034607842610885162 0 0.00019051525035739358 -0.034534441006854856 0 0.00036171136260569934 -0.034444911327275618 0 0.00042600346085063721 -0.034412596883319622 0 0.00041611994054286067 -0.034505010245328961 0 0.00036171136260569934 -0.034444911327275618 0 0.00044151720348940691 -0.03433436304364363 0 0.00042600346085063721 -0.034412596883319622 0 0.00038499094858228904 -0.03431702123335189 0 0.00036171136260569934 -0.034444911327275618 0 0.00044151720348940691 -0.03433436304364363 0 0.00038499094858228904 -0.03431702123335189 0 0.00045774862941069512 -0.034281641792434939 0 0.00044151720348940691 -0.03433436304364363 0 0.00045774862941069512 -0.034281641792434939 0 0.00044151720348940691 -0.03433436304364363 0 0.0005289545441243068 -0.034261645203756554 0 0.00045774862941069512 -0.034281641792434939 0 0.0005289545441243068 -0.034261645203756554 0 0.00040216289575694346 -0.034233562962883379 0 0.0005289545441243068 -0.034261645203756554 0 0.00040216289575694346 -0.034233562962883379 0 0.00041455667272466748 -0.034072334592533775 0 0.0011196148814836121 -0.03347869336043454 0 0.0011291066066149303 -0.033383960737359789 0 0.0005289545441243068 -0.034261645203756554 0 0.00048726258188943087 -0.034369841567252798 0 0.00061812380478134122 -0.034576968733208382 0 0.0005289545441243068 -0.034261645203756554 0 0.00059666804764656385 -0.033968201540660901 0 0.00041455667272466748 -0.034072334592533775 0 0.0011332399977704651 -0.033436057683376159 0 0.0011291066066149303 -0.033383960737359789 0 0.00048726258188943087 -0.034369841567252798 0 0.00041611994054286067 -0.034505010245328961 0 0.00054885403646031934 -0.034512298778874198 0 0.00044151720348940691 -0.03433436304364363 0 0.00042600346085063721 -0.034412596883319622 0 0.00048726258188943087 -0.034369841567252798 0 0.00044151720348940691 -0.03433436304364363 0 0.0005289545441243068 -0.034261645203756554 0 0.00048726258188943087 -0.034369841567252798 0 0.00042600346085063721 -0.034412596883319622 0 0.00048726258188943087 -0.034369841567252798 0 0.00041611994054286067 -0.034505010245328961 0 0.00041611994054286067 -0.034505010245328961 0 0.00054885403646031934 -0.034512298778874198 0 0.00043383258052534225 -0.03465121590181057 0 0.0011291066066149303 -0.033383960737359789 0 0.00093987572093985031 -0.033217923301192012 0 0.00054885403646031934 -0.034512298778874198 0 0.00043383258052534225 -0.03465121590181057 0 0.00055700143202352199 -0.034787268964705617 0 0.00043383258052534225 -0.03465121590181057 0 0.00032592194620545563 -0.034607842610885162 0 0.00033875971262843977 -0.034809182986086984 0 0.00032592194620545563 -0.034607842610885162 0 0.00033875971262843977 -0.034809182986086984 0 0.00019013672121334578 -0.034689562245822932 0 0.00041611994054286067 -0.034505010245328961 0 0.00043383258052534225 -0.03465121590181057 0 0.00032592194620545563 -0.034607842610885162 0 0.00036171136260569934 -0.034444911327275618 0 0.00041611994054286067 -0.034505010245328961 0 0.00032592194620545563 -0.034607842610885162 0 0.00024115340495519199 -0.034287254378994034 0 -0.00011836448243752392 -0.033977454839232243 0 0.00023333417810535823 -0.034057402431799291 0 -0.00012373223569705707 -0.021404823679692004 0 0.00024932485673388629 -0.022120575463581316 0 0.00052419922477745982 -0.021421823977331167 0 0.00038758704877917894 -0.0277034002227627 0 0.00040588412382482606 -0.027537154791892077 0 -0.00011836448243752392 -0.033977454839232243 0 0.00023333417810535823 -0.034057402431799291 0 8.8432677649534912e-05 -0.033824092564991991 0 0.00024115340495519199 -0.034287254378994034 0 0.00023333417810535823 -0.034057402431799291 0 0.00040216289575694346 -0.034233562962883379 0 0.00023333417810535823 -0.034057402431799291 0 0.00040216289575694346 -0.034233562962883379 0 0.00041455667272466748 -0.034072334592533775 0 0.00059666804764656385 -0.033968201540660901 0 0.0003206246966035281 -0.033761269397568475 0 0.00038506211961039665 -0.033323348575035626 0 0.0011291066066149303 -0.033383960737359789 0 0.0011141066251327632 -0.032256985973583882 0 0.00023333417810535823 -0.034057402431799291 0 0.00041455667272466748 -0.034072334592533775 0 0.0003206246966035281 -0.033761269397568475 0 0.00059666804764656385 -0.033968201540660901 0 0.00041455667272466748 -0.034072334592533775 0 0.0003206246966035281 -0.033761269397568475 0 0.00023333417810535823 -0.034057402431799291 0 0.0003206246966035281 -0.033761269397568475 0 8.8432677649534912e-05 -0.033824092564991991 0 0.0003206246966035281 -0.033761269397568475 0 8.8432677649534912e-05 -0.033824092564991991 0 -8.8722577391886387e-05 -0.033487701057542806 0 -0.00011836448243752392 -0.033977454839232243 0 -8.8722577391886387e-05 -0.033487701057542806 0 -0.00044002664039483866 -0.033461503824764233 0 -0.00011836448243752392 -0.033977454839232243 0 8.8432677649534912e-05 -0.033824092564991991 0 -8.8722577391886387e-05 -0.033487701057542806 0 -8.8722577391886387e-05 -0.033487701057542806 0 1.3849838235427271e-05 -0.033127487833722449 0 0.00038506211961039665 -0.033323348575035626 0 -8.8722577391886387e-05 -0.033487701057542806 0 1.3849838235427271e-05 -0.033127487833722449 0 -0.0003007234107313964 -0.033068671499735448 0 0.0003206246966035281 -0.033761269397568475 0 -8.8722577391886387e-05 -0.033487701057542806 0 0.00038506211961039665 -0.033323348575035626 0 0.0011141066251327632 -0.032256985973583882 0 0.00098132853520381145 -0.030233646259851064 0 0.0011121129785230241 -0.032276339050494027 0 0.0013368973139636373 -0.031457175356100375 0 0.00065291777404402607 -0.031463461169540755 0 0.0011121129785230241 -0.032276339050494027 0 0.0013368973139636373 -0.031457175356100375 0 0.00145524414839916 -0.032272624642142131 0 0.00064103189803917169 -0.032362954744769787 0 0.00098132853520381145 -0.030233646259851064 0 5.3284071160702493e-05 -0.032619320708071331 0 -0.0003007234107313964 -0.033068671499735448 0 -0.00046860760835790508 -0.032606192112113061 0 1.3849838235427271e-05 -0.033127487833722449 0 5.3284071160702493e-05 -0.032619320708071331 0 -0.0003007234107313964 -0.033068671499735448 0 0.00098132853520381145 -0.030233646259851064 0 0.00056481928866389003 -0.028403247795593927 0 1.3849838235427271e-05 -0.033127487833722449 0 0.00038506211961039665 -0.033323348575035626 0 5.3284071160702493e-05 -0.032619320708071331 0 0.0015725822252520489 -0.033090756703332766 0 0.0011121129785230241 -0.032276339050494027 0 0.00145524414839916 -0.032272624642142131 0 0.00043383258052534225 -0.03465121590181057 0 0.00033875971262843977 -0.034809182986086984 0 0.00055700143202352199 -0.034787268964705617 0 0.00058263422560448437 -0.035005904876301917 0 0.00033875971262843977 -0.034809182986086984 0 0.00055700143202352199 -0.034787268964705617 0 0.00064103189803917169 -0.032362954744769787 0 0.00093987572093985031 -0.033217923301192012 0 0.00058263422560448437 -0.035005904876301917 0 0.00033875971262843977 -0.034809182986086984 0 0.00027651535786640564 -0.035009607310396547 0 0.00033875971262843977 -0.034809182986086984 0 0.00017260368175367561 -0.034841013515684249 0 0.00027651535786640564 -0.035009607310396547 0 0.00017260368175367561 -0.034841013515684249 0 3.0822054907549894e-06 -0.035008339038907654 0 0.00027651535786640564 -0.035009607310396547 0 0.00033875971262843977 -0.034809182986086984 0 0.00017260368175367561 -0.034841013515684249 0 0.00019013672121334578 -0.034689562245822932 0 0.00017260368175367561 -0.034841013515684249 0 7.7731398495518408e-05 -0.03474995079568826 0 0.00019013672121334578 -0.034689562245822932 0 4.5606769137174364e-05 -0.034834870699291531 0 -2.2401766836816663e-05 -0.034941109401267566 0 -2.317569518549913e-05 -0.034811969280573972 0 9.5261255093003353e-06 -0.034988871006401211 0 7.599649014916273e-06 -0.034994858747474038 0 1.3649392166614563e-06 -0.034994984049765553 0 7.438301521682076e-05 -0.034853085449208093 0 4.1367621717751309e-06 -0.034947642095019195 0 7.438301521682076e-05 -0.034853085449208093 0 7.4404739292754796e-05 -0.03485267741052666 0 7.438301521682076e-05 -0.034853085449208093 0 8.1239104889650797e-05 -0.034793650203800298 0 0.00017260368175367561 -0.034841013515684249 0 7.7731398495518408e-05 -0.03474995079568826 0 4.0197772693010421e-05 -0.034876153266484348 0 0.00017260368175367561 -0.034841013515684249 0 4.0197772693010421e-05 -0.034876153266484348 0 3.0822054907549894e-06 -0.035008339038907654 0 8.1239104889650797e-05 -0.034793650203800298 0 0.00012618071205060125 -0.034607365094518103 0 7.599649014916273e-06 -0.034994858747474038 0 3.6278311429341333e-06 -0.034996720347235687 0 5.8470297040969093e-06 -0.03499930754881532 0 3.6278311429341333e-06 -0.034996720347235687 0 1.3649392166614563e-06 -0.034994984049765553 0 1.0151542672274356e-06 -0.034999191043367683 0 1.3649392166614563e-06 -0.034994984049765553 0 2.9350298990612029e-07 -0.034999573823801103 0 1.0151542672274356e-06 -0.034999191043367683 0 3.6278311429341333e-06 -0.034996720347235687 0 1.0151542672274356e-06 -0.034999191043367683 0 5.8470297040969093e-06 -0.03499930754881532 0 7.599649014916273e-06 -0.034994858747474038 0 3.6278311429341333e-06 -0.034996720347235687 0 1.3649392166614563e-06 -0.034994984049765553 0 -3.5790446255471974e-08 -0.034999917915453531 0 4.1367621717751309e-06 -0.034947642095019195 0 -3.2367246141715248e-09 -0.03499999549551458 0 1.3649392166614563e-06 -0.034994984049765553 0 2.9350298990612029e-07 -0.034999573823801103 0 5.7593185759146213e-08 -0.034999985004293695 0 -2.2401766836816663e-05 -0.034941109401267566 0 -1.4343863903921798e-07 -0.034999850572604845 0 -2.2401766836816663e-05 -0.034941109401267566 0 -2.317569518549913e-05 -0.034811969280573972 0 -1.4343863903921798e-07 -0.034999850572604845 0 -2.317569518549913e-05 -0.034811969280573972 0 -1.4343863903921798e-07 -0.034999850572604845 0 -6.6692775675535214e-05 -0.034749098693336353 0 1.079567590466541e-08 -0.034999124265466579 0 -1.4343863903921798e-07 -0.034999850572604845 0 -6.6692775675535214e-05 -0.034749098693336353 0 -2.317569518549913e-05 -0.034811969280573972 0 -6.6692775675535214e-05 -0.034749098693336353 0 -6.5876327622601695e-09 -0.03462110990031373 0 -8.5206042607481478e-05 -0.034185859139141753 0 -6.6692775675535214e-05 -0.034749098693336353 0 -6.5876327622601695e-09 -0.03462110990031373 0 -8.5206042607481478e-05 -0.034185859139141753 0 -6.5876327622601695e-09 -0.03462110990031373 0 0.00019051525035739358 -0.034534441006854856 0 -6.5876327622601695e-09 -0.03462110990031373 0 0.00019051525035739358 -0.034534441006854856 0 7.5271600179958146e-05 -0.034694099372548699 0 0.00019051525035739358 -0.034534441006854856 0 0.00019013672121334578 -0.034689562245822932 0 7.5271600179958146e-05 -0.034694099372548699 0 0.00032592194620545563 -0.034607842610885162 0 0.00019051525035739358 -0.034534441006854856 0 0.00019013672121334578 -0.034689562245822932 0 4.7219861206337123e-05 -0.034847693520633813 0 0.00019013672121334578 -0.034689562245822932 0 5.2966799599735396e-05 -0.034810946722934846 0 0.00019013672121334578 -0.034689562245822932 0 5.2966799599735396e-05 -0.034810946722934846 0 7.5271600179958146e-05 -0.034694099372548699 0 7.438301521682076e-05 -0.034853085449208093 0 9.8479544136792323e-05 -0.034831592175787233 0 -2.317569518549913e-05 -0.034811969280573972 0 5.2966799599735396e-05 -0.034810946722934846 0 7.5271600179958146e-05 -0.034694099372548699 0 4.5606769137174364e-05 -0.034834870699291531 0 -2.317569518549913e-05 -0.034811969280573972 0 5.2966799599735396e-05 -0.034810946722934846 0 -2.317569518549913e-05 -0.034811969280573972 0 -6.5876327622601695e-09 -0.03462110990031373 0 7.5271600179958146e-05 -0.034694099372548699 0 0.0010104617289333679 -0.018074063253568969 0 0.00140158820351141 -0.017341093618678239 0 0.00052543857539359164 -0.017512234591585726 0 0.00061587194449956736 -0.016927247485669115 0 0.00033914410119955231 -0.017317912947265091 0 -0.00010889846206652408 -0.019631724804634897 0 0.00017719008378074913 -0.019578840430554127 0 0.00011152939124341722 -0.019727954473113058 0 -0.00010889846206652408 -0.019631724804634897 0 -5.6742374570308411e-05 -0.01968001073649784 0 0.00011152939124341722 -0.019727954473113058 0 -0.00010889846206652408 -0.019631724804634897 0 -6.9929036693465677e-05 -0.019580812238672446 0 -5.6742374570308411e-05 -0.01968001073649784 0 -0.00010889846206652408 -0.019631724804634897 0 -9.7597659499203587e-05 -0.019334391097841915 0 -0.00017571932090583046 -0.019680664360894495 0 -0.00010889846206652408 -0.019631724804634897 0 -9.7597659499203587e-05 -0.019334391097841915 0 0.00017719008378074913 -0.019578840430554127 0 0.0010104617289333679 -0.018074063253568969 0 0.00087737279278955228 -0.018206218643082465 0 -9.7597659499203587e-05 -0.019334391097841915 0 0.00017719008378074913 -0.019578840430554127 0 0.00015968947046847689 -0.018501866264086186 0 0.00052543857539359164 -0.017512234591585726 0 0.00015968947046847689 -0.018501866264086186 0 5.1246592897536802e-05 -0.017791152523049605 0 0.00015968947046847689 -0.018501866264086186 0 -3.7593076932366981e-07 -0.017968589254344941 0 -0.00011505525504594631 -0.019268768949469234 0 0.00015968947046847689 -0.018501866264086186 0 -3.7593076932366981e-07 -0.017968589254344941 0 -1.9937574928585458e-05 -0.017560821524350734 0 -3.7593076932366981e-07 -0.017968589254344941 0 -0.00011505525504594631 -0.019268768949469234 0 -3.5781961723585786e-07 -0.01988947446738238 0 -9.7597659499203587e-05 -0.019334391097841915 0 0.00015968947046847689 -0.018501866264086186 0 -0.00011505525504594631 -0.019268768949469234 0 -9.7597659499203587e-05 -0.019334391097841915 0 -0.00011505525504594631 -0.019268768949469234 0 -0.00017571932090583046 -0.019680664360894495 0 -0.00017571932090583046 -0.019680664360894495 0 -7.5672124732133452e-05 -0.020276475015886374 0 -2.5727595605817412e-05 -0.020172691808148745 0 -0.00011505525504594631 -0.019268768949469234 0 -0.00017571932090583046 -0.019680664360894495 0 -7.5672124732133452e-05 -0.020276475015886374 0 -3.5781961723585786e-07 -0.01988947446738238 0 -7.5672124732133452e-05 -0.020276475015886374 0 4.4920975555104824e-07 -0.021809986458399346 0 -0.00011505525504594631 -0.019268768949469234 0 -3.5781961723585786e-07 -0.01988947446738238 0 -7.5672124732133452e-05 -0.020276475015886374 0 -7.5672124732133452e-05 -0.020276475015886374 0 4.4920975555104824e-07 -0.021809986458399346 0 0.00014348489279036533 -0.021055927978837964 0 0.00014348489279036533 -0.021055927978837964 0 -2.5727595605817412e-05 -0.020172691808148745 0 0.00053045962787830615 -0.020419447777288484 0 -7.5672124732133452e-05 -0.020276475015886374 0 0.00014348489279036533 -0.021055927978837964 0 -2.5727595605817412e-05 -0.020172691808148745 0 -2.5727595605817412e-05 -0.020172691808148745 0 0.00024481569378377794 -0.019962058878819678 0 0.00053045962787830615 -0.020419447777288484 0 0.00024481569378377794 -0.019962058878819678 0 0.000172027