<?xml version="1.0"?>
<VTKFile type="UnstructuredGrid" version="0.1" byte_order="LittleEndian">
<UnstructuredGrid>
<Piece NumberOfPoints="31898" NumberOfCells="11152">
<Points>
<DataArray type="Float64" NumberOfComponents="3" format="ascii">
-0.5 -0.5 0 -0.47620991077874902 -0.44978878706170539 0 -0.49999999999999473 -0.42132396840504388 0 -0.5 -0.5 0 -0.47160970827802529 -0.4793630013852106 0 -0.47620991077874902 -0.44978878706170539 0 -0.5 -0.5 0 -0.47160970827802529 -0.4793630013852106 0 -0.44860394795025399 -0.5 0 -0.47160970827802529 -0.4793630013852106 0 -0.44860394795025399 -0.5 0 -0.4490820238307246 -0.45820516232899983 0 -0.44860394795025399 -0.5 0 -0.4490820238307246 -0.45820516232899983 0 -0.42881687682924802 -0.47781464288736519 0 -0.4490820238307246 -0.45820516232899983 0 -0.45555437223955858 -0.42914059360647611 0 -0.4490820238307246 -0.45820516232899983 0 -0.45555437223955858 -0.42914059360647611 0 -0.43867285131603428 -0.4271457417558665 0 -0.4490820238307246 -0.45820516232899983 0 -0.43867285131603428 -0.4271457417558665 0 -0.4263356171060747 -0.44269880333887462 0 -0.47160970827802529 -0.4793630013852106 0 -0.4490820238307246 -0.45820516232899983 0 -0.47620991077874902 -0.44978878706170539 0 -0.4490820238307246 -0.45820516232899983 0 -0.47620991077874902 -0.44978878706170539 0 -0.45555437223955858 -0.42914059360647611 0 -0.47620991077874902 -0.44978878706170539 0 -0.48101336032419229 -0.41069999664450008 0 -0.45555437223955858 -0.42914059360647611 0 -0.47620991077874902 -0.44978878706170539 0 -0.49999999999999473 -0.42132396840504388 0 -0.48101336032419229 -0.41069999664450008 0 -0.49999999999999473 -0.42132396840504388 0 -0.48101336032419229 -0.41069999664450008 0 -0.5 -0.393886241813306 0 -0.49999999999999473 -0.42132396840504388 0 -0.48101336032419229 -0.41069999664450008 0 -0.5 -0.393886241813306 0 -0.47854472220918332 -0.38978458738689759 0 -0.48422759779560409 -0.37130120630367158 0 -0.5 -0.393886241813306 0 -0.5 -0.36644851522156802 0 -0.48422759779560409 -0.37130120630367158 0 -0.48101336032419229 -0.41069999664450008 0 -0.5 -0.393886241813306 0 -0.47854472220918332 -0.38978458738689759 0 -0.48101336032419229 -0.41069999664450008 0 -0.47854472220918332 -0.38978458738689759 0 -0.46202672064839212 -0.40007602488395211 0 -0.48101336032419229 -0.41069999664450008 0 -0.46202672064839212 -0.40007602488395211 0 -0.47854472220918332 -0.38978458738689759 0 -0.46725442735267431 -0.37660061361585562 0 -0.46202672064839212 -0.40007602488395211 0 -0.47854472220918332 -0.38978458738689759 0 -0.46725442735267431 -0.37660061361585562 0 -0.48422759779560409 -0.37130120630367158 0 -0.46725442735267431 -0.37660061361585562 0 -0.46202672064839212 -0.40007602488395211 0 -0.46725442735267431 -0.37660061361585562 0 -0.45645674801697989 -0.38644133236760531 0 -0.46202672064839212 -0.40007602488395211 0 -0.46725442735267431 -0.37660061361585562 0 -0.45645674801697989 -0.38644133236760531 0 -0.4540003998136638 -0.37455519391687309 0 -0.45645674801697989 -0.38644133236760531 0 -0.46202672064839212 -0.40007602488395211 0 -0.44257020456291563 -0.38918913383950271 0 -0.46202672064839212 -0.40007602488395211 0 -0.44257020456291563 -0.38918913383950271 0 -0.44727608925983742 -0.41095911152778891 0 -0.46202672064839212 -0.40007602488395211 0 -0.44257020456291563 -0.38918913383950271 0 -0.44257020456291563 -0.38918913383950271 0 -0.44727608925983742 -0.41095911152778891 0 -0.43479358559901082 -0.4041454901736512 0 -0.44257020456291563 -0.38918913383950271 0 -0.4540003998136638 -0.37455519391687309 0 -0.44172858264042247 -0.37082207246888088 0 -0.45645674801697989 -0.38644133236760531 0 -0.44257020456291563 -0.38918913383950271 0 -0.4540003998136638 -0.37455519391687309 0 -0.46202672064839212 -0.40007602488395211 0 -0.45555437223955858 -0.42914059360647611 0 -0.44727608925983742 -0.41095911152778891 0 -0.46202672064839212 -0.40007602488395211 0 -0.45555437223955858 -0.42914059360647611 0 -0.48101336032419229 -0.41069999664450008 0 -0.46202672064839212 -0.40007602488395211 0 -0.45555437223955858 -0.42914059360647611 0 -0.44727608925983742 -0.41095911152778891 0 -0.43867285131603428 -0.4271457417558665 0 -0.43676601469929588 -0.41441201227470881 0 -0.44727608925983742 -0.41095911152778891 0 -0.43676601469929588 -0.41441201227470881 0 -0.43479358559901082 -0.4041454901736512 0 -0.45555437223955858 -0.42914059360647611 0 -0.44727608925983742 -0.41095911152778891 0 -0.43867285131603428 -0.4271457417558665 0 -0.43867285131603428 -0.4271457417558665 0 -0.42681803064840879 -0.42717069814352421 0 -0.4263356171060747 -0.44269880333887462 0 -0.42681803064840879 -0.42717069814352421 0 -0.41531815884496182 -0.42985383783075998 0 -0.4263356171060747 -0.44269880333887462 0 -0.42681803064840879 -0.42717069814352421 0 -0.42624289495594048 -0.42089725947505818 0 -0.42083332353326591 -0.42146747131641099 0 -0.42681803064840879 -0.42717069814352421 0 -0.43096994786351572 -0.41951492446283251 0 -0.42624289495594048 -0.42089725947505818 0 -0.43867285131603428 -0.4271457417558665 0 -0.42681803064840879 -0.42717069814352421 0 -0.43096994786351572 -0.41951492446283251 0 -0.43867285131603428 -0.4271457417558665 0 -0.43676601469929588 -0.41441201227470881 0 -0.43096994786351572 -0.41951492446283251 0 -0.43676601469929588 -0.41441201227470881 0 -0.43096994786351572 -0.41951492446283251 0 -0.42907264086257813 -0.41311715872526122 0 -0.43676601469929588 -0.41441201227470881 0 -0.42907264086257813 -0.41311715872526122 0 -0.43479358559901082 -0.4041454901736512 0 -0.42907264086257813 -0.41311715872526122 0 -0.43479358559901082 -0.4041454901736512 0 -0.42460885511582858 -0.40417321677700252 0 -0.42907264086257813 -0.41311715872526122 0 -0.41997834854398469 -0.41180534796019508 0 -0.42907264086257813 -0.41311715872526122 0 -0.42635027777857132 -0.41543594397746519 0 -0.41997834854398469 -0.41180534796019508 0 -0.42907264086257813 -0.41311715872526122 0 -0.41997834854398469 -0.41180534796019508 0 -0.42460885511582858 -0.40417321677700252 0 -0.42635027777857132 -0.41543594397746519 0 -0.41997834854398469 -0.41180534796019508 0 -0.42635027777857132 -0.41543594397746519 0 -0.42083332353326591 -0.42146747131641099 0 -0.41997834854398469 -0.41180534796019508 0 -0.43096994786351572 -0.41951492446283251 0 -0.42624289495594048 -0.42089725947505818 0 -0.42635027777857132 -0.41543594397746519 0 -0.43096994786351572 -0.41951492446283251 0 -0.42907264086257813 -0.41311715872526122 0 -0.42635027777857132 -0.41543594397746519 0 -0.42624289495594048 -0.42089725947505818 0 -0.42635027777857132 -0.41543594397746519 0 -0.42083332353326591 -0.42146747131641099 0 -0.42083332353326591 -0.42146747131641099 0 -0.41997834854398469 -0.41180534796019508 0 -0.40992282953163789 -0.42011435591993562 0 -0.41997834854398469 -0.41180534796019508 0 -0.39756877647335259 -0.40857286797681719 0 -0.41997834854398469 -0.41180534796019508 0 -0.40992282953163789 -0.42011435591993562 0 -0.39756877647335259 -0.40857286797681719 0 -0.40992282953163789 -0.42011435591993562 0 -0.41531815884496182 -0.42985383783075998 0 -0.39591554026262499 -0.42887225451549271 0 -0.41531815884496182 -0.42985383783075998 0 -0.39591554026262499 -0.42887225451549271 0 -0.41160927495564159 -0.44339431233754628 0 -0.42083332353326591 -0.42146747131641099 0 -0.40992282953163789 -0.42011435591993562 0 -0.41531815884496182 -0.42985383783075998 0 -0.42681803064840879 -0.42717069814352421 0 -0.42083332353326591 -0.42146747131641099 0 -0.41531815884496182 -0.42985383783075998 0 -0.44257020456291563 -0.38918913383950271 0 -0.42311368847744002 -0.37830224279505142 0 -0.42594061475171041 -0.39368797999533162 0 -0.44257020456291563 -0.38918913383950271 0 -0.42311368847744002 -0.37830224279505142 0 -0.44172858264042247 -0.37082207246888088 0 -0.44257020456291563 -0.38918913383950271 0 -0.42311368847744002 -0.37830224279505142 0 -0.42311368847744002 -0.37830224279505142 0 -0.42594061475171041 -0.39368797999533162 0 -0.416587075656149 -0.38785930376960043 0 -0.44257020456291563 -0.38918913383950271 0 -0.42594061475171041 -0.39368797999533162 0 -0.43479358559901082 -0.4041454901736512 0 -0.42594061475171041 -0.39368797999533162 0 -0.43479358559901082 -0.4041454901736512 0 -0.42460885511582858 -0.40417321677700252 0 -0.41997834854398469 -0.41180534796019508 0 -0.41325908582185972 -0.39811010703057192 0 -0.39770572831670092 -0.39911486077581648 0 -0.41997834854398469 -0.41180534796019508 0 -0.39770572831670092 -0.39911486077581648 0 -0.42594061475171041 -0.39368797999533162 0 -0.42460885511582858 -0.40417321677700252 0 -0.41325908582185972 -0.39811010703057192 0 -0.41997834854398469 -0.41180534796019508 0 -0.42460885511582858 -0.40417321677700252 0 -0.41325908582185972 -0.39811010703057192 0 -0.42594061475171041 -0.39368797999533162 0 -0.41325908582185972 -0.39811010703057192 0 -0.416587075656149 -0.38785930376960043 0 -0.41325908582185972 -0.39811010703057192 0 -0.416587075656149 -0.38785930376960043 0 -0.40403491357358612 -0.38133688525744702 0 -0.42311368847744002 -0.37830224279505142 0 -0.40403491357358612 -0.38133688525744702 0 -0.40365717239196519 -0.36741535175059892 0 -0.42311368847744002 -0.37830224279505142 0 -0.416587075656149 -0.38785930376960043 0 -0.40403491357358612 -0.38133688525744702 0 -0.40403491357358612 -0.38133688525744702 0 -0.39190790742475001 -0.38540387676521748 0 -0.39770572831670092 -0.39911486077581648 0 -0.40403491357358612 -0.38133688525744702 0 -0.39190790742475001 -0.38540387676521748 0 -0.3904578797192948 -0.37473938743617019 0 -0.41325908582185972 -0.39811010703057192 0 -0.40403491357358612 -0.38133688525744702 0 -0.39770572831670092 -0.39911486077581648 0 -0.39770572831670092 -0.39911486077581648 0 -0.37543310808941849 -0.38642437359143528 0 -0.39770572831670092 -0.39911486077581648 0 -0.37515920440272033 -0.40534038799344108 0 -0.37543310808941849 -0.38642437359143528 0 -0.39770572831670092 -0.39911486077581648 0 -0.37515920440272033 -0.40534038799344108 0 -0.39756877647335259 -0.40857286797681719
[...]
<PointData Scalars="" Vectors="displacement," Tensors="">
<DataArray type="Float64" Name="displacement" NumberOfComponents="3" format="ascii">
-0.034997419471380339 -0.034998013393723736 0 -0.032615785689630507 -0.034353857116290652 0 -0.029503310383189298 -0.034995304269373403 0 -0.034997419471380339 -0.034998013393723736 0 -0.034421084469559271 -0.033701294927642157 0 -0.032615785689630507 -0.034353857116290652 0 -0.034997419471380339 -0.034998013393723736 0 -0.034421084469559271 -0.033701294927642157 0 -0.03499803341589916 -0.03140522016524197 0 -0.034421084469559271 -0.033701294927642157 0 -0.03499803341589916 -0.03140522016524197 0 -0.03460029086424652 -0.033148179978066086 0 -0.03499803341589916 -0.03140522016524197 0 -0.03460029086424652 -0.033148179978066086 0 -0.035086570972645129 -0.03076180202554233 0 -0.033784613396690311 -0.034049980313225162 0 -0.033575433911714733 -0.034314449248354625 0 -0.03460029086424652 -0.033148179978066086 0 -0.037242838847994696 -0.033213572694967546 0 -0.037459667440257603 -0.031947971208634823 0 -0.03460029086424652 -0.033148179978066086 0 -0.037459667440257603 -0.031947971208634823 0 -0.036394070799258757 -0.030925361939104508 0 -0.034421084469559271 -0.033701294927642157 0 -0.03460029086424652 -0.033148179978066086 0 -0.032615785689630507 -0.034353857116290652 0 -0.03460029086424652 -0.033148179978066086 0 -0.032615785689630507 -0.034353857116290652 0 -0.031854977307951678 -0.034920365088173817 0 -0.032615785689630507 -0.034353857116290652 0 -0.030389517283675619 -0.034602509187465783 0 -0.031854977307951678 -0.034920365088173817 0 -0.032615785689630507 -0.034353857116290652 0 -0.029503310383189298 -0.034995304269373403 0 -0.030389517283675619 -0.034602509187465783 0 -0.02949266187018976 -0.034999993130231506 0 -0.028746936876601386 -0.036314247264489084 0 -0.02757204420288966 -0.034999990528882662 0 -0.029493489348945235 -0.035000321552772849 0 -0.029865137503358487 -0.035118528502471533 0 -0.02757204420288966 -0.034999990528882662 0 -0.027288826872363531 -0.036484717224960418 0 -0.025994538413484744 -0.036092152861308249 0 -0.02757204420288966 -0.034999990528882662 0 -0.025651400195821163 -0.034999989576567719 0 -0.025994538413484744 -0.036092152861308249 0 -0.028746936876601386 -0.036314247264489084 0 -0.02757204420288966 -0.034999990528882662 0 -0.027288826872363531 -0.036484717224960418 0 -0.028746936876601386 -0.036314247264489084 0 -0.027288826872363531 -0.036484717224960418 0 -0.028010810387622386 -0.037622796714557059 0 -0.029865137503358487 -0.035118528502471533 0 -0.030722275955645004 -0.034477402383395479 0 -0.027288826872363531 -0.036484717224960418 0 -0.026368767223722181 -0.03726787544861955 0 -0.028010810387622386 -0.037622796714557059 0 -0.027288826872363531 -0.036484717224960418 0 -0.026368767223722181 -0.03726787544861955 0 -0.025994538413484744 -0.036092152861308249 0 -0.02645661875776123 -0.035384030503832854 0 -0.030722275955645004 -0.034477402383395479 0 -0.024225003726342599 -0.036854515022938829 0 -0.024054180835514125 -0.03672574411079433 0 -0.023877565807734175 -0.036802480000815103 0 -0.024225003726342599 -0.036854515022938829 0 -0.024054180835514125 -0.03672574411079433 0 -0.024173226359608009 -0.0367206333824125 0 -0.024054180835514125 -0.03672574411079433 0 -0.023877565807734175 -0.036802480000815103 0 -0.023984668646847639 -0.036524826753370224 0 -0.038845716750264263 -0.03319703612281534 0 -0.039213281409618071 -0.032122866442447877 0 -0.038317328110563119 -0.032464054066199829 0 -0.030722275955645004 -0.034477402383395479 0 -0.030822743077279981 -0.033871809734641475 0 -0.039213281409618071 -0.032122866442447877 0 -0.038317328110563119 -0.032464054066199829 0 -0.038614479403601951 -0.031770327586392269 0 -0.023984668646847639 -0.036524826753370224 0 -0.024173226359608009 -0.0367206333824125 0 -0.024211345781874262 -0.036512131499326771 0 -0.024054180835514125 -0.03672574411079433 0 -0.023984668646847639 -0.036524826753370224 0 -0.024173226359608009 -0.0367206333824125 0 -0.038845716750264263 -0.03319703612281534 0 -0.037242838847994696 -0.033213572694967546 0 -0.038317328110563119 -0.032464054066199829 0 -0.030722275955645004 -0.034477402383395479 0 -0.033575433911714733 -0.034314449248354625 0 -0.030389517283675619 -0.034602509187465783 0 -0.030252997925025629 -0.035099743148849886 0 -0.031854977307951678 -0.034920365088173817 0 -0.038317328110563119 -0.032464054066199829 0 -0.037459667440257603 -0.031947971208634823 0 -0.038171182183841579 -0.031849953389060784 0 -0.038317328110563119 -0.032464054066199829 0 -0.038171182183841579 -0.031849953389060784 0 -0.038614479403601951 -0.031770327586392269 0 -0.037242838847994696 -0.033213572694967546 0 -0.038317328110563119 -0.032464054066199829 0 -0.037459667440257603 -0.031947971208634823 0 -0.037459667440257603 -0.031947971208634823 0 -0.037422477046873771 -0.031099745793358915 0 -0.036394070799258757 -0.030925361939104508 0 -0.037422477046873771 -0.031099745793358915 0 -0.037244112369603434 -0.03028300853294285 0 -0.036394070799258757 -0.030925361939104508 0 -0.037422477046873771 -0.031099745793358915 0 -0.037816567460415326 -0.0311122324058568 0 -0.037779091626135193 -0.030708104851776677 0 -0.037422477046873771 -0.031099745793358915 0 -0.037904274292173044 -0.031467189043417332 0 -0.037816567460415326 -0.0311122324058568 0 -0.037459667440257603 -0.031947971208634823 0 -0.037422477046873771 -0.031099745793358915 0 -0.037904274292173044 -0.031467189043417332 0 -0.037459667440257603 -0.031947971208634823 0 -0.038171182183841579 -0.031849953389060784 0 -0.037904274292173044 -0.031467189043417332 0 -0.038171182183841579 -0.031849953389060784 0 -0.037904274292173044 -0.031467189043417332 0 -0.038302284692893963 -0.031429420191271824 0 -0.038171182183841579 -0.031849953389060784 0 -0.038302284692893963 -0.031429420191271824 0 -0.038614479403601951 -0.031770327586392269 0 -0.038302284692893963 -0.031429420191271824 0 -0.038614479403601951 -0.031770327586392269 0 -0.038600298389613256 -0.03137364193816549 0 -0.036999955595284663 -0.029577601103854264 0 -0.036976474597838149 -0.02936393673058452 0 -0.038302284692893963 -0.031429420191271824 0 -0.038160335284868882 -0.031171573709089483 0 -0.038482143751439511 -0.030625513631471962 0 -0.038302284692893963 -0.031429420191271824 0 -0.038389489135792487 -0.031229810376097112 0 -0.038600298389613256 -0.03137364193816549 0 -0.036979750799715362 -0.029440568996771124 0 -0.036976474597838149 -0.02936393673058452 0 -0.038160335284868882 -0.031171573709089483 0 -0.037779091626135193 -0.030708104851776677 0 -0.038444117963562584 -0.030648382203618343 0 -0.037904274292173044 -0.031467189043417332 0 -0.037816567460415326 -0.0311122324058568 0 -0.038160335284868882 -0.031171573709089483 0 -0.037904274292173044 -0.031467189043417332 0 -0.038302284692893963 -0.031429420191271824 0 -0.038160335284868882 -0.031171573709089483 0 -0.037816567460415326 -0.0311122324058568 0 -0.038160335284868882 -0.031171573709089483 0 -0.037779091626135193 -0.030708104851776677 0 -0.037779091626135193 -0.030708104851776677 0 -0.038444117963562584 -0.030648382203618343 0 -0.037877541318984811 -0.029948456738926297 0 -0.036976474597838149 -0.02936393673058452 0 -0.037245197927265224 -0.028135216001144825 0 -0.038444117963562584 -0.030648382203618343 0 -0.037877541318984811 -0.029948456738926297 0 -0.038627099517423838 -0.029129291488977561 0 -0.037877541318984811 -0.029948456738926297 0 -0.037244112369603434 -0.03028300853294285 0 -0.037320405524705766 -0.02902621013889221 0 -0.037244112369603434 -0.03028300853294285 0 -0.037320405524705766 -0.02902621013889221 0 -0.036417257692140367 -0.029996058092022132 0 -0.037779091626135193 -0.030708104851776677 0 -0.037877541318984811 -0.029948456738926297 0 -0.037244112369603434 -0.03028300853294285 0 -0.037422477046873771 -0.031099745793358915 0 -0.037779091626135193 -0.030708104851776677 0 -0.037244112369603434 -0.03028300853294285 0 -0.039213281409618071 -0.032122866442447877 0 -0.039324540219478288 -0.031352023479530186 0 -0.038934971982860896 -0.031447672992662934 0 -0.023984668646847639 -0.036524826753370224 0 -0.024095547659374418 -0.036170615419102305 0 -0.024211345781874262 -0.036512131499326771 0 -0.030822743077279981 -0.033871809734641475 0 -0.030691453288112729 -0.03290503725193613 0 -0.039324540219478288 -0.031352023479530186 0 -0.038934971982860896 -0.031447672992662934 0 -0.039044535490436821 -0.031167964058084519 0 -0.039213281409618071 -0.032122866442447877 0 -0.038934971982860896 -0.031447672992662934 0 -0.038614479403601951 -0.031770327586392269 0 -0.038934971982860896 -0.031447672992662934 0 -0.038614479403601951 -0.031770327586392269 0 -0.038600298389613256 -0.03137364193816549 0 -0.038389489135792487 -0.031229810376097112 0 -0.038777955342127975 -0.031068214119323048 0 -0.038773541916849646 -0.030701636207214257 0 -0.036976474597838149 -0.02936393673058452 0 -0.036627186847798698 -0.028347395204364363 0 -0.038934971982860896 -0.031447672992662934 0 -0.038600298389613256 -0.03137364193816549 0 -0.038777955342127975 -0.031068214119323048 0 -0.038389489135792487 -0.031229810376097112 0 -0.038600298389613256 -0.03137364193816549 0 -0.038777955342127975 -0.031068214119323048 0 -0.038934971982860896 -0.031447672992662934 0 -0.038777955342127975 -0.031068214119323048 0 -0.039044535490436821 -0.031167964058084519 0 -0.038777955342127975 -0.031068214119323048 0 -0.039044535490436821 -0.031167964058084519 0 -0.039134977297793402 -0.030822653509679897 0 -0.039324540219478288 -0.031352023479530186 0 -0.039134977297793402 -0.030822653509679897 0 -0.039493929049298312 -0.030816348642717605 0 -0.039324540219478288 -0.031352023479530186 0 -0.039044535490436821 -0.031167964058084519 0 -0.039134977297793402 -0.030822653509679897 0 -0.039134977297793402 -0.030822653509679897 0 -0.03901923327031024 -0.030626152965822662 0 -0.038773541916849646 -0.030701636207214257 0 -0.039134977297793402 -0.030822653509679897 0 -0.03901923327031024 -0.030626152965822662 0 -0.039153042695377026 -0.03061204581245559 0 -0.038777955342127975 -0.031068214119323048 0 -0.039134977297793402 -0.030822653509679897 0 -0.038773541916849646 -0.030701636207214257 0 -0.036627186847798698 -0.028347395204364363 0 -0.035788695314842321 -0.026401195260538399 0 -0.037021147971015987 -0.027750522740177166 0 -0.036729123750594013 -0.026692474833059459 0 -0.037606693845758765 -0.026704069143838362 0 -0.037021147971015987 -0.027750522740177166 0 -0.036729123750594013 -0.026692474833059459 0 -0.036579499811823367 -0.027745102406745142 0 -0.037423680083884706 -0.026298996212775438 0 -0.035788695314842321 -0.026401195260538399 0 -0.039000069112861406 -0.030396153502981166 0 -0.039153042695377026 -0.03061204581245559 0 -0.039193331754002567 -0.030431261098476197 0 -0.03901923327031024 -0.030626152965822662 0 -0.039000069112861406 -0.030396153502981166 0 -0.039153042695377026 -0.03061204581245559 0 -0.035788695314842321 -0.026401195260538399 0 -0.033813239889795434 -0.027083813232712015 0 -0.03901923327031024 -0.030626152965822662 0 -0.038773541916849646 -0.030701636207214257 0 -0.039000069112861406 -0.030396153502981166 0 -0.036432988240507315 -0.028804252757550625 0 -0.037021147971015987 -0.027750522740177166 0 -0.036579499811823367 -0.027745102406745142 0 -0.037877541318984811 -0.029948456738926297 0 -0.037320405524705766 -0.02902621013889221 0 -0.038627099517423838 -0.029129291488977561 0 -0.038822365630730604 -0.027697169688801572 0 -0.037320405524705766 -0.02902621013889221 0 -0.038627099517423838 -0.029129291488977561 0 -0.037423680083884706 -0.026298996212775438 0 -0.037245197927265224 -0.028135216001144825 0 -0.038822365630730604 -0.027697169688801572 0 -0.037320405524705766 -0.02902621013889221 0 -0.036910447416381269 -0.027685196063946493 0 -0.037320405524705766 -0.02902621013889221 0 -0.036220082724082392 -0.028835018860566702 0 -0.036910447416381269 -0.027685196063946493 0 -0.036220082724082392 -0.028835018860566702 0 -0.035040361777836641 -0.027661643812738085 0 -0.036910447416381269 -0.027685196063946493 0 -0.037320405524705766 -0.02902621013889221 0 -0.036220082724082392 -0.028835018860566702 0 -0.036417257692140367 -0.029996058092022132 0 -0.036220082724082392 -0.028835018860566702 0 -0.035539119422584566 -0.029514104489758469 0 -0.036417257692140367 -0.029996058092022132 0 -0.035937224494768799 -0.029431066574508072 0 -0.035571525045976708 -0.02821773953232672 0 -0.035524442421369588 -0.029683675066454213 0 -0.037853120100437516 -0.028170211735949371 0 -0.037590824583977452 -0.027192877512927441 0 -0.0364514946224739 -0.027420039854318939 0 -0.036597220862114484 -0.027927717574881356 0 -0.035837683973612075 -0.027397155472725605 0 -0.036597220862114484 -0.027927717574881356 0 -0.036598043909060844 -0.027942037674979801 0 -0.036597220862114484 -0.027927717574881356 0 -0.036576395957048098 -0.027396067506390984 0 -0.036220082724082392 -0.028835018860566702 0 -0.035539119422584566 -0.029514104489758469 0 -0.035289650792018838 -0.028588629675931475 0 -0.036220082724082392 -0.028835018860566702 0 -0.035289650792018838 -0.028588629675931475 0 -0.035040361777836641 -0.027661643812738085 0 -0.036576395957048098 -0.027396067506390984 0 -0.036504985564748953 -0.026483786774168679 0 -0.037590824583977452 -0.027192877512927441 0 -0.036928401188666436 -0.026836703873357962 0 -0.037327818248545946 -0.026203636574076969 0 -0.036928401188666436 -0.026836703873357962 0 -0.0364514946224739 -0.027420039854318939 0 -0.03654967193950244 -0.026184632570207918 0 -0.0364514946224739 -0.027420039854318939 0 -0.035704075608384005 -0.026066983049449672 0 -0.03654967193950244 -0.026184632570207918 0 -0.036928401188666436 -0.026836703873357962 0 -0.03654967193950244 -0.026184632570207918 0 -0.037327818248545946 -0.026203636574076969 0 -0.037590824583977452 -0.027192877512927441 0 -0.036928401188666436 -0.026836703873357962 0 -0.0364514946224739 -0.027420039854318939 0 -0.035000577522180144 -0.026667235334031539 0 -0.035837683973612075 -0.027397155472725605 0 -0.035000003969032918 -0.026666232661475744 0 -0.0364514946224739 -0.027420039854318939 0 -0.035704075608384005 -0.026066983049449672 0 -0.034999870362379747 -0.026667535807730656 0 -0.035571525045976708 -0.02821773953232672 0 -0.034999123467894057 -0.02869915476370221 0 -0.035571525045976708 -0.02821773953232672 0 -0.035524442421369588 -0.029683675066454213 0 -0.034999123467894057 -0.02869915476370221 0 -0.035524442421369588 -0.029683675066454213 0 -0.034999123467894057 -0.02869915476370221 0 -0.035086570972645129 -0.03076180202554233 0 -0.03499803341589916 -0.03140522016524197 0 -0.034999123467894057 -0.02869915476370221 0 -0.035086570972645129 -0.03076180202554233 0 -0.035524442421369588 -0.029683675066454213 0 -0.035086570972645129 -0.03076180202554233 0 -0.035425535848444073 -0.030861638269823452 0 -0.03460029086424652 -0.033148179978066086 0 -0.035086570972645129 -0.03076180202554233 0 -0.035425535848444073 -0.030861638269823452 0 -0.03460029086424652 -0.033148179978066086 0 -0.035425535848444073 -0.030861638269823452 0 -0.036394070799258757 -0.030925361939104508 0 -0.035425535848444073 -0.030861638269823452 0 -0.036394070799258757 -0.030925361939104508 0 -0.03590993279504523 -0.030189427585110121 0 -0.036394070799258757 -0.030925361939104508 0 -0.036417257692140367 -0.029996058092022132 0 -0.03590993279504523 -0.030189427585110121 0 -0.037244112369603434 -0.03028300853294285 0 -0.036394070799258757 -0.030925361939104508 0 -0.036417257692140367 -0.029996058092022132 0 -0.035901834163683463 -0.029449890058188117 0 -0.036417257692140367 -0.029996058092022132 0 -0.03592276303218471 -0.029579642354262962 0 -0.036417257692140367 -0.029996058092022132 0 -0.03592276303218471 -0.029579642354262962 0 -0.03590993279504523 -0.030189427585110121 0 -0.036597220862114484 -0.027927717574881356 0 -0.036640084717211904 -0.028155580042575793 0 -0.035524442421369588 -0.029683675066454213 0 -0.03592276303218471 -0.029579642354262962 0 -0.03590993279504523 -0.030189427585110121 0 -0.035937224494768799 -0.029431066574508072 0 -0.035524442421369588 -0.029683675066454213 0 -0.03592276303218471 -0.029579642354262962 0 -0.035524442421369588 -0.029683675066454213 0 -0.035425535848444073 -0.030861638269823452 0 -0.03590993279504523 -0.030189427585110121 0 -0.015172889294742774 -0.036557955876539205 0 -0.01372736371515341 -0.034723823814426021 0 -0.017522807913005454 -0.037507864930523681 0 -0.017422874696847196 -0.039420475943088784 0 -0.016397924666567761 -0.03794188286960018 0 -0.019223241332042063 -0.038161989136983522 0 -0.017921074140734478 -0.037738996704815064 0 -0.017813457931415866 -0.03918448446190817 0 -0.019223241332042063 -0.038161989136983522 0 -0.019150961129623376 -0.039421852893874704 0 -0.017813457931415866 -0.03918448446190817 0 -0.019223241332042063 -0.038161989136983522 0 -0.020410119861887604 -0.038699162637264639 0 -0.019150961129623376 -0.039421852893874704 0 -0.019223241332042063 -0.038161989136983522 0 -0.018722535256166638 -0.037047655451064636 0 -0.019765433176821234 -0.036921538784845796 0 -0.019223241332042063 -0.038161989136983522 0 -0.018722535256166638 -0.037047655451064636 0 -0.017921074140734478 -0.037738996704815064 0 -0.015172889294742774 -0.036557955876539205 0 -0.015648190301469404 -0.036486225618449296 0 -0.018722535256166638 -0.037047655451064636 0 -0.017921074140734478 -0.037738996704815064 0 -0.017914493363071698 -0.036205484762618825 0 -0.017522807913005454 -0.037507864930523681 0 -0.017914493363071698 -0.036205484762618825 0 -0.016194833607197749 -0.036497641007841509 0 -0.017914493363071698 -0.036205484762618825 0 -0.017968582458901181 -0.034999636133167929 0 -0.01914026784479516 -0.035972955495658307 0 -0.017914493363071698 -0.036205484762618825 0 -0.017968582458901181 -0.034999636133167929 0 -0.016806819116404227 -0.035633463855457188 0 -0.017968582458901181 -0.034999636133167929 0 -0.01914026784479516 -0.035972955495658307 0 -0.019889422647604349 -0.034999921581651244 0 -0.018722535256166638 -0.037047655451064636 0 -0.017914493363071698 -0.036205484762618825 0 -0.01914026784479516 -0.035972955495658307 0 -0.018722535256166638 -0.037047655451064636 0 -0.01914026784479516 -0.035972955495658307 0 -0.019765433176821234 -0.036921538784845796 0 -0.019765433176821234 -0.036921538784845796 0 -0.020397031554814309 -0.035881334325420539 0 -0.020831234826800098 -0.036761554157382838 0 -0.01914026784479516 -0.035972955495658307 0 -0.019765433176821234 -0.036921538784845796 0 -0.020397031554814309 -0.035881334325420539 0 -0.019889422647604349 -0.034999921581651244 0 -0.020397031554814309 -0.035881334325420539 0 -0.021809996148247371 -0.034999917972512354 0 -0.01914026784479516 -0.035972955495658307 0 -0.019889422647604349 -0.034999921581651244 0 -0.020397031554814309 -0.035881334325420539 0 -0.020397031554814309 -0.035881334325420539 0 -0.021809996148247371 -0.034999917972512354 0 -0.021372960897946817 -0.036086751044087539 0 -0.021372960897946817 -0.036086751044087539 0 -0.020831234826800098 -0.036761554157382838 0 -0.021916223746286361 -0.036707023726486612 0 -0.020397031554814309 -0.035881334325420539 0 -0.021372960897946817 -0.036086751044087539 0 -0.020831234826800098 -0.036761554157382838 0 -0.020831234826800098 -0.036761554157382838 0 -0.021359570961998395 -0.037405963905588681 0 -0.021916223746286361 -0.036707023726486612 0 -0.021359570961998395 -0.037405963905588681 0 -0.021139020044238489 -0.038286297903392885 0 -0.021834463575266135 -0.037936392769899262 0 -0.021359570961998395 -0.037405963905588681 0 -0.020434529401264029 -0.037699500852325783 0 -0.021139020044238489 -0.038286297903392885 0 -0.020831234826800098 -0.036761554157382838 0 -0.021359570961998395 -0.037405963905588681 0 -0.020434529401264029 -0.037699500852325783 0 -0.019223241332042063 -0.038161989136983522 0 -0.019765433176821234 -0.036921538784845796 0 -0.020434529401264029 -0.037699500852325783 0 -0.019765433176821234 -0.036921538784845796 0 -0.02083123