<?xml version="1.0"?>
<VTKFile type="UnstructuredGrid" version="0.1" byte_order="LittleEndian">
<UnstructuredGrid>
<Piece NumberOfPoints="31938" NumberOfCells="11229">
<Points>
<DataArray type="Float64" NumberOfComponents="3" format="ascii">
-0.5 -0.5 0 -0.44726781941254989 -0.47819601817682189 0 -0.41125833763128877 -0.5 0 -0.5 -0.5 0 -0.47677418566113811 -0.47226591654547062 0 -0.44726781941254989 -0.47819601817682189 0 -0.5 -0.5 0 -0.49999999999999961 -0.48079158807978961 0 -0.47677418566113811 -0.47226591654547062 0 -0.49999999999999961 -0.48079158807978961 0 -0.47677418566113811 -0.47226591654547062 0 -0.47677418566113811 -0.47226591654547062 0 -0.44726781941254989 -0.47819601817682189 0 -0.45354837132227649 -0.46374024501115152 0 -0.44251345449664742 -0.446267939543326 0 -0.4565573651062389 -0.44066179865068988 0 -0.43441323328287967 -0.43349896710203939 0 -0.44251345449664742 -0.446267939543326 0 -0.45354837132227649 -0.46374024501115152 0 -0.4565573651062389 -0.44066179865068988 0 -0.44251345449664742 -0.446267939543326 0 -0.45354837132227649 -0.46374024501115152 0 -0.43032255698341509 -0.45521457347683247 0 -0.45354837132227649 -0.46374024501115152 0 -0.43032255698341509 -0.45521457347683247 0 -0.44726781941254989 -0.47819601817682189 0 -0.45354837132227649 -0.46374024501115152 0 -0.43032255698341509 -0.45521457347683247 0 -0.47677418566113811 -0.47226591654547062 0 -0.45354837132227649 -0.46374024501115152 0 -0.4734066104760557 -0.45317059373215901 0 -0.47677418566113811 -0.47226591654547062 0 -0.45354837132227649 -0.46374024501115152 0 -0.45354837132227649 -0.46374024501115152 0 -0.4565573651062389 -0.44066179865068988 0 -0.4734066104760557 -0.45317059373215901 0 -0.4565573651062389 -0.44066179865068988 0 -0.48015313029062501 -0.4380826266216909 0 -0.4734066104760557 -0.45317059373215901 0 -0.47677418566113811 -0.47226591654547062 0 -0.4734066104760557 -0.45317059373215901 0 -0.5 -0.45110238183179191 0 -0.49999999999999961 -0.48079158807978961 0 -0.47677418566113811 -0.47226591654547062 0 -0.5 -0.45110238183179191 0 -0.48015313029062501 -0.4380826266216909 0 -0.4734066104760557 -0.45317059373215901 0 -0.5 -0.45110238183179191 0 -0.48015313029062501 -0.4380826266216909 0 -0.5 -0.4214131755837941 0 -0.46569579133502531 -0.41925717541023849 0 -0.5 -0.4214131755837941 0 -0.47526778257535468 -0.3960463478059823 0 -0.46569579133502531 -0.41925717541023849 0 -0.48015313029062501 -0.4380826266216909 0 -0.5 -0.45110238183179191 0 -0.5 -0.4214131755837941 0 -0.48512354646623262 -0.37845451176912731 0 -0.5 -0.39172396933579651 0 -0.47526778257535468 -0.3960463478059823 0 -0.48512354646623262 -0.37845451176912731 0 -0.5 -0.39172396933579651 0 -0.5 -0.36203476308779881 0 -0.5 -0.4214131755837941 0 -0.5 -0.39172396933579651 0 -0.47526778257535468 -0.3960463478059823 0 -0.48512354646623262 -0.37845451176912731 0 -0.47526778257535468 -0.3960463478059823 0 -0.46632774584278519 -0.366218592632641 0 -0.45467336078224002 -0.38653695153103662 0 -0.46632774584278519 -0.366218592632641 0 -0.43840205183134873 -0.37327149302653928 0 -0.47526778257535468 -0.3960463478059823 0 -0.45467336078224002 -0.38653695153103662 0 -0.46632774584278519 -0.366218592632641 0 -0.47526778257535468 -0.3960463478059823 0 -0.45467336078224002 -0.38653695153103662 0 -0.45612463221827632 -0.40301768298745461 0 -0.47526778257535468 -0.3960463478059823 0 -0.45612463221827632 -0.40301768298745461 0 -0.46569579133502531 -0.41925717541023849 0 -0.45612463221827632 -0.40301768298745461 0 -0.44555011804718231 -0.41648402294867082 0 -0.43664677819207132 -0.39461019324690672 0 -0.45467336078224002 -0.38653695153103662 0 -0.45612463221827632 -0.40301768298745461 0 -0.43664677819207132 -0.39461019324690672 0 -0.45467336078224002 -0.38653695153103662 0 -0.43664677819207132 -0.39461019324690672 0 -0.43840205183134873 -0.37327149302653928 0 -0.4565573651062389 -0.44066179865068988 0 -0.46569579133502531 -0.41925717541023849 0 -0.44555011804718231 -0.41648402294867082 0 -0.4565573651062389 -0.44066179865068988 0 -0.48015313029062501 -0.4380826266216909 0 -0.46569579133502531 -0.41925717541023849 0 -0.45612463221827632 -0.40301768298745461 0 -0.46569579133502531 -0.41925717541023849 0 -0.44555011804718231 -0.41648402294867082 0 -0.4565573651062389 -0.44066179865068988 0 -0.44555011804718231 -0.41648402294867082 0 -0.43441323328287967 -0.43349896710203939 0 -0.43441323328287967 -0.43349896710203939 0 -0.41878792609240728 -0.43877004790664148 0 -0.44555011804718231 -0.41648402294867082 0 -0.43441323328287967 -0.43349896710203939 0 -0.43246201599272982 -0.42020224759738151 0 -0.43441323328287967 -0.43349896710203939 0 -0.41979095212567957 -0.42257677103220642 0 -0.41878792609240728 -0.43877004790664148 0 -0.43441323328287967 -0.43349896710203939 0 -0.43246201599272982 -0.42020224759738151 0 -0.41979095212567957 -0.42257677103220642 0 -0.44555011804718231 -0.41648402294867082 0 -0.43246201599272982 -0.42020224759738151 0 -0.42714828224681067 -0.40782891081931161 0 -0.44555011804718231 -0.41648402294867082 0 -0.42714828224681067 -0.40782891081931161 0 -0.43664677819207132 -0.39461019324690672 0 -0.43246201599272982 -0.42020224759738151 0 -0.42714828224681067 -0.40782891081931161 0 -0.41979095212567957 -0.42257677103220642 0 -0.41407448751549403 -0.40799100044148351 0 -0.41979095212567957 -0.42257677103220642 0 -0.40330871272756408 -0.41980414477326378 0 -0.41407448751549403 -0.40799100044148351 0 -0.40345480655319249 -0.39556716083528382 0 -0.40330871272756408 -0.41980414477326378 0 -0.42714828224681067 -0.40782891081931161 0 -0.41407448751549403 -0.40799100044148351 0 -0.41979095212567957 -0.42257677103220642 0 -0.41126255246189652 -0.43129802310583892 0 -0.41979095212567957 -0.42257677103220642 0 -0.41878792609240728 -0.43877004790664148 0 -0.41126255246189652 -0.43129802310583892 0 -0.41979095212567957 -0.42257677103220642 0 -0.40330871272756408 -0.41980414477326378 0 -0.42467989906095949 -0.38357616753810653 0 -0.43664677819207132 -0.39461019324690672 0 -0.43840205183134873 -0.37327149302653928 0 -0.42467989906095949 -0.38357616753810653 0 -0.43840205183134873 -0.37327149302653928 0 -0.41833152443854382 -0.37077521388388007 0 -0.42714828224681067 -0.40782891081931161 0 -0.43664677819207132 -0.39461019324690672 0 -0.41989193607327929 -0.3954431299435795 0 -0.42467989906095949 -0.38357616753810653 0 -0.43664677819207132 -0.39461019324690672 0 -0.41989193607327929 -0.3954431299435795 0 -0.41989193607327929 -0.3954431299435795 0 -0.41334736287114798 -0.38308534678038508 0 -0.40345480655319249 -0.39556716083528382 0 -0.41407448751549403 -0.40799100044148351 0 -0.41989193607327929 -0.3954431299435795 0 -0.40345480655319249 -0.39556716083528382 0 -0.42714828224681067 -0.40782891081931161 0 -0.41407448751549403 -0.40799100044148351 0 -0.41989193607327929 -0.3954431299435795 0 -0.41334736287114798 -0.38308534678038508 0 -0.40345480655319249 -0.39556716083528382 0 -0.40360090037882101 -0.37133017689730369 0 -0.42467989906095949 -0.38357616753810653 0 -0.41989193607327929 -0.3954431299435795 0 -0.41334736287114798 -0.38308534678038508 0 -0.41334736287114798 -0.38308534678038508 0 -0.41833152443854382 -0.37077521388388007 0 -0.40360090037882101 -0.37133017689730369 0 -0.42467989906095949 -0.38357616753810653 0 -0.41334736287114798 -0.38308534678038508 0 -0.41833152443854382 -0.37077521388388007 0 -0.40345480655319249 -0.39556716083528382 0 -0.40360090037882101 -0.37133017689730369 0 -0.39619478813844722 -0.38324387396841109 0 -0.40345480655319249 -0.39556716083528382 0 -0.40360090037882101 -0.37133017689730369 0 -0.39619478813844722 -0.38324387396841109 0 -0.38625554332273548 -0.37540101329966569 0 -0.39491524436931091 -0.37363015639529162 0 -0.39619478813844722 -0.38324387396841109 0 -0.40360090037882101 -0.37133017689730369 0 -0.39491524436931091 -0.37363015639529162 0 -0.40345480655319249 -0.39556716083528382 0 -0.38749974168635931 -0.39976248933738279 0 -0.40330871272756408 -0.41980414477326378 0 -0.39619478813844722 -0.38324387396841109 0 -0.40345480655319249 -0.39556716083528382 0 -0.38749974168635931 -0.39976248933738279 0 -0.38749974168635931 -0.39976248933738279 0 -0.3769664123283914 -0.4109003045795378 0 -0.37469442256259078 -0.39815904361029281 0 -0.38749974168635931 -0.39976248933738279 0 -0.37913170969305299 -0.38884127204369368 0 -0.37469442256259078 -0.39815904361029281 0 -0.39619478813844722 -0.38324387396841109 0 -0.38749974168635931 -0.39976248933738279 0 -0.38625554332273548 -0.37540101329966569 0 -0.38749974168635931 -0.39976248933738279 0 -0.37913170969305299 -0.38884127204369368 0 -0.38625554332273548 -0.37540101329966569 0 -0.38749974168635931 -0.39976248933738279 0 -0.38625554332273548 -0.37540101329966569 0 -0.37913170969305299 -0.38884127204369368 0 -0.38625554332273548 -0.37540101329966569 0 -0.36863989712025741 -0.38042445352763138 0 -0.41126255246189652 -0.43129802310583892 0 -0.40330871272756408 -0.41980414477326378 0 -0.403162618901935 -0.4440411287112439 0 -0.40330871272756408 -0.41980414477326378 0 -0.38874394004998297 -0.42412396537509989 0 -0.403162618901935 -0.4440411287112439 0 -0.40330871272756408 -0.41980414477326378 0 -0.403162618901935 -0.4440411287112439 0 -0.40345480655319249 -0.39556716083528382 0 -0.40330871272756408 -0.41980414477326378 0 -0.38749974168635931 -0.39976248933738279 0 -0.40330871272756408 -0.41980414477326378 0 -0.38874394004998297 -0.42412396537509989 0 -0.3769664123283914 -0.4109003045795378 0 -0.38874394004998297 -0.42412396537509989 0 -0.3720968394384 -0.42320741441149762 0 -0.38749974168635931 -0.39976248933738279 0 -0.38874394004998297 -0.42412396537509989 0 -0.38749974168635931 -0.39976248933738279 0 -0.3769664123283914 -0.4109003045795378 0 -0.38874394004998297 -0.42412396537509989 0 -0.38874394004998297 -0.42412396537509989 0 -0.3899881384136073 -0.44848544141281699 0 -0.37488048530459422 -0.43700727243122528 0 -0.38874394004998297 -0.42412396537509989 0 -0.3899881384136073 -0.44848544141281699 0 -0.388743
[...]
<PointData Scalars="" Vectors="displacement," Tensors="">
<DataArray type="Float64" Name="displacement" NumberOfComponents="3" format="ascii">
-0.034999685356128046 -2.1050142629883679e-07 0 -0.031422338683098905 -0.00027711465996842053 0 -0.028789010560678927 -3.5068089576441937e-07 0 -0.034999685356128046 -2.1050142629883679e-07 0 -0.033026846599440177 -8.1152182477779765e-05 0 -0.031422338683098905 -0.00027711465996842053 0 -0.034999685356128046 -2.1050142629883679e-07 0 -0.034996576525813151 3.5066789122152297e-08 0 -0.033026846599440177 -8.1152182477779765e-05 0 -0.034999470179961668 -2.0659410549826648e-07 0 -0.033830380992152354 -0.00021652558422463939 0 -0.033026846599440177 -8.1152182477779765e-05 0 -0.031422338683098905 -0.00027711465996842053 0 -0.031746921419582581 -0.00031314255966180472 0 -0.033126479241808802 -0.0004670773785516613 0 -0.033815888929021883 -0.00043725859289761511 0 -0.033569187460598102 -0.00024982015486339684 0 -0.033126479241808802 -0.0004670773785516613 0 -0.033797276093381776 -0.00048248420537720172 0 -0.033815888929021883 -0.00043725859289761511 0 -0.033126479241808802 -0.0004670773785516613 0 -0.033797276093381776 -0.00048248420537720172 0 -0.031856916451175388 -0.00029898251125468799 0 -0.03277604060945731 -0.00033690141593113677 0 -0.032070155785385607 -0.000238495772506554 0 -0.031422338683098905 -0.00027711465996842053 0 -0.031746921419582581 -0.00031314255966180472 0 -0.031856916451175388 -0.00029898251125468799 0 -0.034668240529193858 -0.00018183216940183267 0 -0.033797276093381776 -0.00048248420537720172 0 -0.034356330544524361 -0.00026241342854898685 0 -0.033830380992152354 -0.00021652558422463939 0 -0.03277604060945731 -0.00033690141593113677 0 -0.033797276093381776 -0.00048248420537720172 0 -0.033815888929021883 -0.00043725859289761511 0 -0.034356330544524361 -0.00026241342854898685 0 -0.033815888929021883 -0.00043725859289761511 0 -0.034531854665781833 -0.0002144058748925337 0 -0.034356330544524361 -0.00026241342854898685 0 -0.034668240529193858 -0.00018183216940183267 0 -0.034356330544524361 -0.00026241342854898685 0 -0.034999138283546387 -3.889340655341333e-08 0 -0.035000110172297233 -1.0468381608392574e-07 0 -0.034668240529193858 -0.00018183216940183267 0 -0.034999138283546387 -3.889340655341333e-08 0 -0.034531854665781833 -0.0002144058748925337 0 -0.034356330544524361 -0.00026241342854898685 0 -0.034999138283546387 -3.889340655341333e-08 0 -0.034531854665781833 -0.0002144058748925337 0 -0.034999433983959972 -3.0316469488172096e-07 0 -0.03443932411554914 -0.00031015669473575814 0 -0.034999433983959972 -3.0316469488172096e-07 0 -0.034740620269887265 -0.00018942287074797816 0 -0.03443932411554914 -0.00031015669473575814 0 -0.034531854665781833 -0.0002144058748925337 0 -0.034999138283546387 -3.889340655341333e-08 0 -0.034999433983959972 -3.0316469488172096e-07 0 -0.034887840289715102 -9.2641508836947074e-05 0 -0.034999764795095457 -6.5404962837278903e-08 0 -0.034740620269887265 -0.00018942287074797816 0 -0.034887840289715102 -9.2641508836947074e-05 0 -0.034999764795095457 -6.5404962837278903e-08 0 -0.034999816616932432 -1.1004304231246006e-07 0 -0.034999433983959972 -3.0316469488172096e-07 0 -0.034999764795095457 -6.5404962837278903e-08 0 -0.034740620269887265 -0.00018942287074797816 0 -0.034887840289715102 -9.2641508836947074e-05 0 -0.034740620269887265 -0.00018942287074797816 0 -0.034833871374575942 -0.00012046990639384537 0 -0.03468035086290016 -0.0001737071466870284 0 -0.034833871374575942 -0.00012046990639384537 0 -0.034705498195970963 -0.0001118444293589983 0 -0.034740620269887265 -0.00018942287074797816 0 -0.03468035086290016 -0.0001737071466870284 0 -0.034833871374575942 -0.00012046990639384537 0 -0.034740620269887265 -0.00018942287074797816 0 -0.03468035086290016 -0.0001737071466870284 0 -0.034528227078099619 -0.00023949780497841135 0 -0.034740620269887265 -0.00018942287074797816 0 -0.034528227078099619 -0.00023949780497841135 0 -0.03443932411554914 -0.00031015669473575814 0 -0.034528227078099619 -0.00023949780497841135 0 -0.034241726991584634 -0.00026320193055697649 0 -0.034546318810768299 -0.00012148938361440272 0 -0.03468035086290016 -0.0001737071466870284 0 -0.034528227078099619 -0.00023949780497841135 0 -0.034546318810768299 -0.00012148938361440272 0 -0.03468035086290016 -0.0001737071466870284 0 -0.034546318810768299 -0.00012148938361440272 0 -0.034705498195970963 -0.0001118444293589983 0 -0.033815888929021883 -0.00043725859289761511 0 -0.03443932411554914 -0.00031015669473575814 0 -0.034241726991584634 -0.00026320193055697649 0 -0.033815888929021883 -0.00043725859289761511 0 -0.034531854665781833 -0.0002144058748925337 0 -0.03443932411554914 -0.00031015669473575814 0 -0.034528227078099619 -0.00023949780497841135 0 -0.03443932411554914 -0.00031015669473575814 0 -0.034241726991584634 -0.00026320193055697649 0 -0.033815888929021883 -0.00043725859289761511 0 -0.034241726991584634 -0.00026320193055697649 0 -0.033569187460598102 -0.00024982015486339684 0 -0.033442941584604091 -0.0003022245430620919 0 -0.033070899527116289 5.2121819663602336e-05 0 -0.034241726991584634 -0.00026320193055697649 0 -0.033569187460598102 -0.00024982015486339684 0 -0.03405031460176472 -0.0001291369578606017 0 -0.033569187460598102 -0.00024982015486339684 0 -0.033974200769294985 9.4592260774566686e-05 0 -0.033547811315098687 0.00010047965546128658 0 -0.033569187460598102 -0.00024982015486339684 0 -0.03405031460176472 -0.0001291369578606017 0 -0.033974200769294985 9.4592260774566686e-05 0 -0.034241726991584634 -0.00026320193055697649 0 -0.03405031460176472 -0.0001291369578606017 0 -0.034315211067777504 -4.5172231096431427e-05 0 -0.034241726991584634 -0.00026320193055697649 0 -0.034315211067777504 -4.5172231096431427e-05 0 -0.034546318810768299 -0.00012148938361440272 0 -0.03405031460176472 -0.0001291369578606017 0 -0.034315211067777504 -4.5172231096431427e-05 0 -0.033974200769294985 9.4592260774566686e-05 0 -0.034290953882309343 0.00013716120865676207 0 -0.033974200769294985 9.4592260774566686e-05 0 -0.034038224925095673 0.00040411673805909284 0 -0.034290953882309343 0.00013716120865676207 0 -0.034505590092866772 0.0001796885544663898 0 -0.034038224925095673 0.00040411673805909284 0 -0.034315211067777504 -4.5172231096431427e-05 0 -0.034290953882309343 0.00013716120865676207 0 -0.033974200769294985 9.4592260774566686e-05 0 -0.033752731315238163 0.00026919877991439935 0 -0.033974200769294985 9.4592260774566686e-05 0 -0.033547811315098687 0.00010047965546128658 0 -0.033752731315238163 0.00026919877991439935 0 -0.033974200769294985 9.4592260774566686e-05 0 -0.034038224925095673 0.00040411673805909284 0 -0.034602486370775079 -5.24793948652233e-05 0 -0.034546318810768299 -0.00012148938361440272 0 -0.034705498195970963 -0.0001118444293589983 0 -0.034602486370775079 -5.24793948652233e-05 0 -0.034705498195970963 -0.0001118444293589983 0 -0.034636934498833816 -7.4118803698908556e-05 0 -0.034315211067777504 -4.5172231096431427e-05 0 -0.034546318810768299 -0.00012148938361440272 0 -0.034494129030759248 1.4209906754901637e-05 0 -0.034602486370775079 -5.24793948652233e-05 0 -0.034546318810768299 -0.00012148938361440272 0 -0.034494129030759248 1.4209906754901637e-05 0 -0.034494129030759248 1.4209906754901637e-05 0 -0.034575604362387144 8.1800717735311971e-07 0 -0.034505590092866772 0.0001796885544663898 0 -0.034290953882309343 0.00013716120865676207 0 -0.034494129030759248 1.4209906754901637e-05 0 -0.034505590092866772 0.0001796885544663898 0 -0.034315211067777504 -4.5172231096431427e-05 0 -0.034290953882309343 0.00013716120865676207 0 -0.034494129030759248 1.4209906754901637e-05 0 -0.034575604362387144 8.1800717735311971e-07 0 -0.034505590092866772 0.0001796885544663898 0 -0.034540343359607956 -0.00012844587748748508 0 -0.034602486370775079 -5.24793948652233e-05 0 -0.034494129030759248 1.4209906754901637e-05 0 -0.034575604362387144 8.1800717735311971e-07 0 -0.034575604362387144 8.1800717735311971e-07 0 -0.034636934498833816 -7.4118803698908556e-05 0 -0.034540343359607956 -0.00012844587748748508 0 -0.034602486370775079 -5.24793948652233e-05 0 -0.034575604362387144 8.1800717735311971e-07 0 -0.034636934498833816 -7.4118803698908556e-05 0 -0.03387619189712722 -5.5294275828294507e-05 0 -0.034480121141896906 -0.00011660825554180657 0 -0.033888042693617206 7.5049457625560824e-05 0 -0.033311638552566948 -0.00030367499635162228 0 -0.034540343359607956 -0.00012844587748748508 0 -0.033888042693617206 7.5049457625560824e-05 0 -0.034106115228882107 0.00045054352290483664 0 -0.034320016510637569 7.9371430012237118e-05 0 -0.033888042693617206 7.5049457625560824e-05 0 -0.034540343359607956 -0.00012844587748748508 0 -0.034320016510637569 7.9371430012237118e-05 0 -0.033311638552566948 -0.00030367499635162228 0 -0.033129947452412739 0.00047390467360916127 0 -0.032088742893050824 -0.00032222349496015159 0 -0.033888042693617206 7.5049457625560824e-05 0 -0.033311638552566948 -0.00030367499635162228 0 -0.033129947452412739 0.00047390467360916127 0 -0.031510574793564457 0.00010557041488882914 0 -0.030291683929978389 0.0012207182441236585 0 -0.031672138008013793 0.0014711634916162036 0 -0.031510574793564457 0.00010557041488882914 0 -0.032676530970268625 0.0010368444753942275 0 -0.031672138008013793 0.0014711634916162036 0 -0.033888042693617206 7.5049457625560824e-05 0 -0.033129947452412739 0.00047390467360916127 0 -0.034106115228882107 0.00045054352290483664 0 -0.031510574793564457 0.00010557041488882914 0 -0.032676530970268625 0.0010368444753942275 0 -0.034106115228882107 0.00045054352290483664 0 -0.032341038959599847 0.00030465924676092754 0 -0.033971451793098587 0.00042690907771239555 0 -0.032676530970268625 0.0010368444753942275 0 -0.034106115228882107 0.00045054352290483664 0 -0.033529663977589684 0.0020248436528545865 0 -0.033752731315238163 0.00026919877991439935 0 -0.034038224925095673 0.00040411673805909284 0 -0.033432277426680659 0.00047517681678558459 0 -0.032088742893050824 -0.00032222349496015159 0 -0.031849688052654951 0.00044344121002185352 0 -0.030780776058146324 -0.00031891492581247763 0 -0.033119708337631379 -8.6790991271508718e-07 0 -0.03179263134004523 0.00042980897726578186 0 -0.03387619189712722 -5.5294275828294507e-05 0 -0.033119708337631379 -8.6790991271508718e-07 0 -0.033129947452412739 0.00047390467360916127 0 -0.032088742893050824 -0.00032222349496015159 0 -0.031849688052654951 0.00044344121002185352 0 -0.030291683929978389 0.0012207182441236585 0 -0.028869645087847368 -4.3623046313343838e-05 0 -0.028957849713879921 0.0017294670772772767 0 -0.032341038959599847 0.00030465924676092754 0 -0.030309431650201529 0.00015534202036958012 0 -0.031510574793564457 0.00010557041488882914 0 -0.030291683929978389 0.0012207182441236585 0 -0.028869645087847368 -4.3623046313343838e-05 0 -0.028869645087847368 -4.3623046313343838e-05 0 -0.026290680195096415 -0.00016676804427698643 0 -0.027487957409386393 0.0014274787283950832 0 -0.030309431650201529 0.00015534202036958012 0 -0.028614983149610838 0.00053245687357649928 0 -0.028869645087847368 -4.3623046313343838e-05 0 -0.027487957409386393 0.0014274787283950832 0 -0.028957849713879921 0.0017294670772772767 0 -0.026290680195096415 -0.00016676804427698643 0 -0.025561092954854273 0.0019476846401778585 0 -0.027487957409386393 0.0014274787283950832 0 -0.028789010560678927 -3.5068089576441937e-07 0 -0.024294689570581198 1.9945134459216079e-06 0 -0.026323094378452941 0.00024504801770788056 0 -0.028614983149610838 0.00053245687357649928 0 -0.026162500498886108 0.0011032715155780293 0 -0.031849688052654951 0.00044344121002185352 0 -0.030530037466748705 0.00038902381028503352 0 -0.030780776058146324 -0.00031891492581247763 0 -0.028614983149610838 0.00053245687357649928 0 -0.03179263134004523 0.00042980897726578186 0 -0.03179263134004523 0.00042980897726578186 0 -0.030517395717240717 0.00048939030418295056 0 -0.031034224459742184 0.0015162171979427722 0 -0.03140656932534884 0.00043503296194271273 0 -0.030307634573420138 0.0004346275205827723 0 -0.031034224459742184 0.0015162171979427722 0 -0.030307634573420138 0.0004346275205827723 0 -0.028202439957756762 0.00061404955044181504 0 -0.030307634573420138 0.0004346275205827723 0 -0.028202439957756762 0.00061404955044181504 0 -0.029972657576640114 6.0363126223550625e-05 0 -0.02671822922977958 0.00062615045084979393 0 -0.027264190409830087 0.00029425397339575979 0 -0.028202439957756762 0.00061404955044181504 0 -0.028614983149610838 0.00053245687357649928 0 -0.028410581317065697 0.00079888267161740232 0 -0.02671822922977958 0.00062615045084979393 0 -0.027264190409830087 0.00029425397339575979 0 -0.026882628013172427 8.0231714837730416e-05 0 -0.027264190409830087 0.00029425397339575979 0 -0.028202439957756762 0.00061404955044181504 0 -0.026323094378452941 0.00024504801770788056 0 -0.028202439957756762 0.00061404955044181504 0 -0.028789010560678927 -3.5068089576441937e-07 0 -0.026323094378452941 0.00024504801770788056 0 -0.028202439957756762 0.00061404955044181504 0 -0.029972657576640114 6.0363126223550625e-05 0 -0.028789010560678927 -3.5068089576441937e-07 0 -0.031422338683098905 -0.00027711465996842053 0 -0.029972657576640114 6.0363126223550625e-05 0 -0.028789010560678927 -3.5068089576441937e-07 0 -0.031422338683098905 -0.00027711465996842053 0 -0.029972657576640114 6.0363126223550625e-05 0 -0.031856916451175388 -0.00029898251125468799 0 -0.033569187460598102 -0.00024982015486339684 0 -0.031856916451175388 -0.00029898251125468799 0 -0.032530939407963824 0.00013563133668569483 0 -0.033126479241808802 -0.0004670773785516613 0 -0.033569187460598102 -0.00024982015486339684 0 -0.031856916451175388 -0.00029898251125468799 0 -0.03179263134004523 0.00042980897726578186 0 -0.033070899527116289 5.2121819663602336e-05 0 -0.033752731315238163 0.00026919877991439935 0 -0.033432277426680659 0.00047517681678558459 0 -0.033547811315098687 0.00010047965546128658 0 -0.031856916451175388 -0.00029898251125468799 0 -0.031328013154006185 0.00012574371969596086 0 -0.032530939407963824 0.00013563133668569483 0 -0.031774953824006594 0.00081894108586598002 0 -0.031328013154006185 0.00012574371969596086 0 -0.032530939407963824 0.00013563133668569483 0 -0.031774953824006594 0.00081894108586598002 0 -0.030307634573420138 0.0004346275205827723 0 -0.031328013154006185 0.00012574371969596086 0 -0.029972657576640114 6.0363126223550625e-05 0 -0.031856916451175388 -0.00029898251125468799 0 -0.031328013154006185 0.00012574371969596086 0 -0.030307634573420138 0.0004346275205827723 0 -0.029972657576640114 6.0363126223550625e-05 0 -0.031328013154006185 0.00012574371969596086 0 -0.03482623709789253 4.4984217232816176e-05 0 -0.034876715362753018 -1.1191741087153255e-05 0 -0.034878131764895015 5.8582448156635875e-05 0 -0.0350185714108684 -0.00010159948458368209 0 -0.034590129247903313 -5.2250940994369816e-07 0 -0.035108257827426402 -0.00016274742116882945 0 -0.035109900091617761 -0.00027235061906533527 0 -0.035075174732355295 -0.00023579766665265516 0 -0.03482623709789253 4.4984217232816176e-05 0 -0.034836729478021002 -2.3813059126026748e-05 0 -0.034704787414363635 1.6064453478532002e-05 0 -0.03482623709789253 4.4984217232816176e-05 0 -0.034836729478021002 -2.3813059126026748e-05 0 -0.034876715362753018 -1.1191741087153255e-05 0 -0.03462236300551564 2.9401756393401417e-05 0 -0.034684801037960136 2.6682733890959444e-05 0 -0.034836729478021002 -2.3813059126026748e-05 0 -0.034876715362753018 -1.1191741087153255e-05 0 -0.034907383279230098 -2.4934423243649711e-05 0 -0.035108257827426402 -0.00016274742116882945 0 -0.035065847711101279 -6.0588404475505257e-05 0 -0.03506109705322509 -0.00011869865759043578 0 -0.0350185714108684 -0.00010159948458368209 0 -0.03498568012303168 -5.0710540702397421e-05 0 -0.035065847711101279 -6.0588404475505257e-05 0 -0.035032797703184564 -7.1846252764902653e-05 0 -0.03506109705322509 -0.00011869865759043578 0 -0.035065847711101279 -6.0588404475505257e-05 0 -0.035000111004728648 -3.2399127673241965e-08 0 -0.035000045753145997 -1.677768862981505e-08 0 -0.03498568012303168 -5.0710540702397421e-05 0 -0.034999990474147154 -3.9935068807795425e-08 0 -0.034907383279230098 -2.4934423243649711e-05 0 -0.034999849995862822 -1.9549372894202734e-08 0 -0.03492297705619489 -1.6766518616154241e-05 0 -0.034999849995862822 -1.9549372894202734e-08 0 -0.03492297705619489 -1.6766518616154241e-05 0 -0.034999972504955089 2.013322767098111e-09 0 -0.034836729478021002 -2.3813059126026748e-05 0 -0.034907383279230098 -2.4934423243649711e-05 0 -0.03492297705619489 -1.6766518616154241e-05 0 -0.034836729478021002 -2.3813059126026748e-05 0 -0.03492297705619489 -1.6766518616154241e-05 0 -0.034857480543815163 -1.8250404125360071e-05 0 -0.03492297705619489 -1.6766518616154241e-05 0 -0.034857480543815163 -1.8250404125360071e-05 0 -0.034915742771641362 -1.3446192186122744e-05 0 -0.034857480543815163 -1.8250404125360071e-05 0 -0.034915742771641362 -1.3446192186122744e-05 0 -0.034842380857942952 -1.5157464047200967e-05 0 -0.03492297705619489 -1.6766518616154241e-05 0 -0.034915742771641362 -1.3446192186122744e-05 0 -0.034999972504955089 2.013322767098111e-09 0 -0.034915742771641362 -1.3446192186122744e-05 0 -0.034999972504955089 2.013322767098111e-09 0 -0.034999739075958408 -5.3836685003281309e-08 0 -0.034915742771641362 -1.3446192186122744e-05 0 -0.034999739075958408 -5.3836685003281309e-08 0 -0.034839841757761163 -1.5230391689529909e-05 0 -0.034999958240796977 -8.3257323558850787e-10 0 -0.034894832527825201 -2.7975045798204153e-05 0 -0.034915742771641362 -1.3446192186122744e-05 0 -0.034842380857942952 -1.5157464047200967e-05 0 -0.034839841757761163 -1.5230391689529909e-05 0 -0.034792028560859244 -2.8233476010062664e-05 0 -0.034842380857942952 -1.5157464047200967e-05 0 -0.034839841757761163 -1.5230391689529909e-05 0 -0.034792028560859244 -2.8233476010062664e-05 0 -0.034842380857942952 -1.5157464047200967e-05 0 -0.034786045677407285 -1.0764260732654218e-05 0 -0.034836729478021002 -2.3813059126026748e-05 0 -0.034786045677407285 -1.0764260732654218e-05 0 -0.034704787414363635 1.6064453478532002e-05 0 -0.034857480543815163 -1.8250404125360071e-05 0 -0.034842380857942952 -1.5157464047200967e-05 0 -0.034786045677407285 -1.0764260732654218e-05 0 -0.034836729478021002 -2.3813059126026748e-05 0 -0.034857480543815163 -1.8250404125360071e-05 0 -0.034786045677407285 -1.0764260732654218e-05 0 -0.034786045677407285 -1.0764260732654218e-05 0 -0.034704787414363635 1.6064453478532002e-05 0 -0.034731255865898279 -4.0071680419751571e-05 0 -0.034792028560859244 -2.8233476010062664e-05 0 -0.034731255865898279 -4.0071680419751571e-05 0 -0.034779523618571902 -6.3271822316374348e-05 0 -0.034731255865898279 -4.0071680419751571e-05 0 -0.034779523618571902 -6.3271822316374348e-05 0 -0.034730044059023538 -0.0001030231707965044 0 -0.034792028560859244 -2.8233476010062664e-05 0 -0.034786045677407285 -1.0764260732654218e-05 0 -0.034731255865898279 -4.0071680419751571e-05 0 -0.034779523618571902 -6.3271822316374348e-05 0 -0.034829351681315367 -7.3720266171168919e-05 0 -0.034839841757761163 -1.5230391689529909e-05 0 -0.034792028560859244 -2.8233476010062664e-05 0 -0.034779523618571902 -6.3271822316374348e-05 0 -0.034839841757761163 -1.5230391689529909e-05 0 -0.034829351681315367 -7.3720266171168919e-05 0 -0.034782448764288779 -0.00010018061594298743 0 -0.034772321137274111 -0.0001064288486311183 0 -0.034779523618571902 -6.3271822316374348e-05 0 -0.034829351681315367 -7.3720266171168919e-05 0 -0.034772321137274111 -0.0001064288486311183 0 -0.034841361527465725 -7.0326224614869758e-05 0 -0.034894832527825201 -2.7975045798204153e-05 0 -0.034999980537606286 6.290531367652506e-09 0 -0.034950461430259046 -4.0873466390580981e-05 0 -0.034999904697818232 -4.2368883840680114e-08 0 -0.034950461430259046 -4.0873466390580981e-05 0 -0.034999904697818232 -4.2368883840680114e-08 0 -0.034916495938564288 -5.7610782963229643e-05 0 -0.034829351681315367 -7.3720266171168919e-05 0 -0.034950461430259046 -4.0873466390580981e-05 0 -0.0349164959