<?xml version="1.0"?>
<VTKFile type="UnstructuredGrid" version="0.1" byte_order="LittleEndian">
<UnstructuredGrid>
<Piece NumberOfPoints="31938" NumberOfCells="11229">
<Points>
<DataArray type="Float64" NumberOfComponents="3" format="ascii">
-0.5 -0.5 0 -0.44726781941254989 -0.47819601817682189 0 -0.41125833763128877 -0.5 0 -0.5 -0.5 0 -0.47677418566113811 -0.47226591654547062 0 -0.44726781941254989 -0.47819601817682189 0 -0.5 -0.5 0 -0.49999999999999961 -0.48079158807978961 0 -0.47677418566113811 -0.47226591654547062 0 -0.49999999999999961 -0.48079158807978961 0 -0.47677418566113811 -0.47226591654547062 0 -0.47677418566113811 -0.47226591654547062 0 -0.44726781941254989 -0.47819601817682189 0 -0.45354837132227649 -0.46374024501115152 0 -0.44251345449664742 -0.446267939543326 0 -0.4565573651062389 -0.44066179865068988 0 -0.43441323328287967 -0.43349896710203939 0 -0.44251345449664742 -0.446267939543326 0 -0.45354837132227649 -0.46374024501115152 0 -0.4565573651062389 -0.44066179865068988 0 -0.44251345449664742 -0.446267939543326 0 -0.45354837132227649 -0.46374024501115152 0 -0.43032255698341509 -0.45521457347683247 0 -0.45354837132227649 -0.46374024501115152 0 -0.43032255698341509 -0.45521457347683247 0 -0.44726781941254989 -0.47819601817682189 0 -0.45354837132227649 -0.46374024501115152 0 -0.43032255698341509 -0.45521457347683247 0 -0.47677418566113811 -0.47226591654547062 0 -0.45354837132227649 -0.46374024501115152 0 -0.4734066104760557 -0.45317059373215901 0 -0.47677418566113811 -0.47226591654547062 0 -0.45354837132227649 -0.46374024501115152 0 -0.45354837132227649 -0.46374024501115152 0 -0.4565573651062389 -0.44066179865068988 0 -0.4734066104760557 -0.45317059373215901 0 -0.4565573651062389 -0.44066179865068988 0 -0.48015313029062501 -0.4380826266216909 0 -0.4734066104760557 -0.45317059373215901 0 -0.47677418566113811 -0.47226591654547062 0 -0.4734066104760557 -0.45317059373215901 0 -0.5 -0.45110238183179191 0 -0.49999999999999961 -0.48079158807978961 0 -0.47677418566113811 -0.47226591654547062 0 -0.5 -0.45110238183179191 0 -0.48015313029062501 -0.4380826266216909 0 -0.4734066104760557 -0.45317059373215901 0 -0.5 -0.45110238183179191 0 -0.48015313029062501 -0.4380826266216909 0 -0.5 -0.4214131755837941 0 -0.46569579133502531 -0.41925717541023849 0 -0.5 -0.4214131755837941 0 -0.47526778257535468 -0.3960463478059823 0 -0.46569579133502531 -0.41925717541023849 0 -0.48015313029062501 -0.4380826266216909 0 -0.5 -0.45110238183179191 0 -0.5 -0.4214131755837941 0 -0.48512354646623262 -0.37845451176912731 0 -0.5 -0.39172396933579651 0 -0.47526778257535468 -0.3960463478059823 0 -0.48512354646623262 -0.37845451176912731 0 -0.5 -0.39172396933579651 0 -0.5 -0.36203476308779881 0 -0.5 -0.4214131755837941 0 -0.5 -0.39172396933579651 0 -0.47526778257535468 -0.3960463478059823 0 -0.48512354646623262 -0.37845451176912731 0 -0.47526778257535468 -0.3960463478059823 0 -0.46632774584278519 -0.366218592632641 0 -0.45467336078224002 -0.38653695153103662 0 -0.46632774584278519 -0.366218592632641 0 -0.43840205183134873 -0.37327149302653928 0 -0.47526778257535468 -0.3960463478059823 0 -0.45467336078224002 -0.38653695153103662 0 -0.46632774584278519 -0.366218592632641 0 -0.47526778257535468 -0.3960463478059823 0 -0.45467336078224002 -0.38653695153103662 0 -0.45612463221827632 -0.40301768298745461 0 -0.47526778257535468 -0.3960463478059823 0 -0.45612463221827632 -0.40301768298745461 0 -0.46569579133502531 -0.41925717541023849 0 -0.45612463221827632 -0.40301768298745461 0 -0.44555011804718231 -0.41648402294867082 0 -0.43664677819207132 -0.39461019324690672 0 -0.45467336078224002 -0.38653695153103662 0 -0.45612463221827632 -0.40301768298745461 0 -0.43664677819207132 -0.39461019324690672 0 -0.45467336078224002 -0.38653695153103662 0 -0.43664677819207132 -0.39461019324690672 0 -0.43840205183134873 -0.37327149302653928 0 -0.4565573651062389 -0.44066179865068988 0 -0.46569579133502531 -0.41925717541023849 0 -0.44555011804718231 -0.41648402294867082 0 -0.4565573651062389 -0.44066179865068988 0 -0.48015313029062501 -0.4380826266216909 0 -0.46569579133502531 -0.41925717541023849 0 -0.45612463221827632 -0.40301768298745461 0 -0.46569579133502531 -0.41925717541023849 0 -0.44555011804718231 -0.41648402294867082 0 -0.4565573651062389 -0.44066179865068988 0 -0.44555011804718231 -0.41648402294867082 0 -0.43441323328287967 -0.43349896710203939 0 -0.43441323328287967 -0.43349896710203939 0 -0.41878792609240728 -0.43877004790664148 0 -0.44555011804718231 -0.41648402294867082 0 -0.43441323328287967 -0.43349896710203939 0 -0.43246201599272982 -0.42020224759738151 0 -0.43441323328287967 -0.43349896710203939 0 -0.41979095212567957 -0.42257677103220642 0 -0.41878792609240728 -0.43877004790664148 0 -0.43441323328287967 -0.43349896710203939 0 -0.43246201599272982 -0.42020224759738151 0 -0.41979095212567957 -0.42257677103220642 0 -0.44555011804718231 -0.41648402294867082 0 -0.43246201599272982 -0.42020224759738151 0 -0.42714828224681067 -0.40782891081931161 0 -0.44555011804718231 -0.41648402294867082 0 -0.42714828224681067 -0.40782891081931161 0 -0.43664677819207132 -0.39461019324690672 0 -0.43246201599272982 -0.42020224759738151 0 -0.42714828224681067 -0.40782891081931161 0 -0.41979095212567957 -0.42257677103220642 0 -0.41407448751549403 -0.40799100044148351 0 -0.41979095212567957 -0.42257677103220642 0 -0.40330871272756408 -0.41980414477326378 0 -0.41407448751549403 -0.40799100044148351 0 -0.40345480655319249 -0.39556716083528382 0 -0.40330871272756408 -0.41980414477326378 0 -0.42714828224681067 -0.40782891081931161 0 -0.41407448751549403 -0.40799100044148351 0 -0.41979095212567957 -0.42257677103220642 0 -0.41126255246189652 -0.43129802310583892 0 -0.41979095212567957 -0.42257677103220642 0 -0.41878792609240728 -0.43877004790664148 0 -0.41126255246189652 -0.43129802310583892 0 -0.41979095212567957 -0.42257677103220642 0 -0.40330871272756408 -0.41980414477326378 0 -0.42467989906095949 -0.38357616753810653 0 -0.43664677819207132 -0.39461019324690672 0 -0.43840205183134873 -0.37327149302653928 0 -0.42467989906095949 -0.38357616753810653 0 -0.43840205183134873 -0.37327149302653928 0 -0.41833152443854382 -0.37077521388388007 0 -0.42714828224681067 -0.40782891081931161 0 -0.43664677819207132 -0.39461019324690672 0 -0.41989193607327929 -0.3954431299435795 0 -0.42467989906095949 -0.38357616753810653 0 -0.43664677819207132 -0.39461019324690672 0 -0.41989193607327929 -0.3954431299435795 0 -0.41989193607327929 -0.3954431299435795 0 -0.41334736287114798 -0.38308534678038508 0 -0.40345480655319249 -0.39556716083528382 0 -0.41407448751549403 -0.40799100044148351 0 -0.41989193607327929 -0.3954431299435795 0 -0.40345480655319249 -0.39556716083528382 0 -0.42714828224681067 -0.40782891081931161 0 -0.41407448751549403 -0.40799100044148351 0 -0.41989193607327929 -0.3954431299435795 0 -0.41334736287114798 -0.38308534678038508 0 -0.40345480655319249 -0.39556716083528382 0 -0.40360090037882101 -0.37133017689730369 0 -0.42467989906095949 -0.38357616753810653 0 -0.41989193607327929 -0.3954431299435795 0 -0.41334736287114798 -0.38308534678038508 0 -0.41334736287114798 -0.38308534678038508 0 -0.41833152443854382 -0.37077521388388007 0 -0.40360090037882101 -0.37133017689730369 0 -0.42467989906095949 -0.38357616753810653 0 -0.41334736287114798 -0.38308534678038508 0 -0.41833152443854382 -0.37077521388388007 0 -0.40345480655319249 -0.39556716083528382 0 -0.40360090037882101 -0.37133017689730369 0 -0.39619478813844722 -0.38324387396841109 0 -0.40345480655319249 -0.39556716083528382 0 -0.40360090037882101 -0.37133017689730369 0 -0.39619478813844722 -0.38324387396841109 0 -0.38625554332273548 -0.37540101329966569 0 -0.39491524436931091 -0.37363015639529162 0 -0.39619478813844722 -0.38324387396841109 0 -0.40360090037882101 -0.37133017689730369 0 -0.39491524436931091 -0.37363015639529162 0 -0.40345480655319249 -0.39556716083528382 0 -0.38749974168635931 -0.39976248933738279 0 -0.40330871272756408 -0.41980414477326378 0 -0.39619478813844722 -0.38324387396841109 0 -0.40345480655319249 -0.39556716083528382 0 -0.38749974168635931 -0.39976248933738279 0 -0.38749974168635931 -0.39976248933738279 0 -0.3769664123283914 -0.4109003045795378 0 -0.37469442256259078 -0.39815904361029281 0 -0.38749974168635931 -0.39976248933738279 0 -0.37913170969305299 -0.38884127204369368 0 -0.37469442256259078 -0.39815904361029281 0 -0.39619478813844722 -0.38324387396841109 0 -0.38749974168635931 -0.39976248933738279 0 -0.38625554332273548 -0.37540101329966569 0 -0.38749974168635931 -0.39976248933738279 0 -0.37913170969305299 -0.38884127204369368 0 -0.38625554332273548 -0.37540101329966569 0 -0.38749974168635931 -0.39976248933738279 0 -0.38625554332273548 -0.37540101329966569 0 -0.37913170969305299 -0.38884127204369368 0 -0.38625554332273548 -0.37540101329966569 0 -0.36863989712025741 -0.38042445352763138 0 -0.41126255246189652 -0.43129802310583892 0 -0.40330871272756408 -0.41980414477326378 0 -0.403162618901935 -0.4440411287112439 0 -0.40330871272756408 -0.41980414477326378 0 -0.38874394004998297 -0.42412396537509989 0 -0.403162618901935 -0.4440411287112439 0 -0.40330871272756408 -0.41980414477326378 0 -0.403162618901935 -0.4440411287112439 0 -0.40345480655319249 -0.39556716083528382 0 -0.40330871272756408 -0.41980414477326378 0 -0.38749974168635931 -0.39976248933738279 0 -0.40330871272756408 -0.41980414477326378 0 -0.38874394004998297 -0.42412396537509989 0 -0.3769664123283914 -0.4109003045795378 0 -0.38874394004998297 -0.42412396537509989 0 -0.3720968394384 -0.42320741441149762 0 -0.38749974168635931 -0.39976248933738279 0 -0.38874394004998297 -0.42412396537509989 0 -0.38749974168635931 -0.39976248933738279 0 -0.3769664123283914 -0.4109003045795378 0 -0.38874394004998297 -0.42412396537509989 0 -0.38874394004998297 -0.42412396537509989 0 -0.3899881384136073 -0.44848544141281699 0 -0.37488048530459422 -0.43700727243122528 0 -0.38874394004998297 -0.42412396537509989 0 -0.3899881384136073 -0.44848544141281699 0 -0.388743
[...]
<PointData Scalars="" Vectors="displacement," Tensors="">
<DataArray type="Float64" Name="displacement" NumberOfComponents="3" format="ascii">
-0.034995108756843148 -0.034999840127537755 0 -0.035269687420556202 -0.031578654122517168 0 -0.034998349075199421 -0.028792031133231113 0 -0.034995108756843148 -0.034999840127537755 0 -0.035112199616425574 -0.033504305646908671 0 -0.035269687420556202 -0.031578654122517168 0 -0.034995108756843148 -0.034999840127537755 0 -0.033663830179830413 -0.034997311633030576 0 -0.035112199616425574 -0.033504305646908671 0 -0.03365555153416902 -0.034999571128438205 0 -0.033728585443833413 -0.034367006784030596 0 -0.035112199616425574 -0.033504305646908671 0 -0.035269687420556202 -0.031578654122517168 0 -0.035236273409727403 -0.031844572188156492 0 -0.033012106285082762 -0.033968649896275988 0 -0.032134147358095798 -0.034768933886732863 0 -0.032774580885849537 -0.034496366578139398 0 -0.033012106285082762 -0.033968649896275988 0 -0.031913504889264178 -0.034836712382877326 0 -0.032134147358095798 -0.034768933886732863 0 -0.033012106285082762 -0.033968649896275988 0 -0.031913504889264178 -0.034836712382877326 0 -0.033946769718191362 -0.032168485335997823 0 -0.033611418523030769 -0.033396224910919169 0 -0.033876441485690988 -0.032359623604059209 0 -0.035269687420556202 -0.031578654122517168 0 -0.035236273409727403 -0.031844572188156492 0 -0.033946769718191362 -0.032168485335997823 0 -0.032369980655869081 -0.03544541807243913 0 -0.031913504889264178 -0.034836712382877326 0 -0.031806343940776506 -0.035248411820749691 0 -0.033728585443833413 -0.034367006784030596 0 -0.033611418523030769 -0.033396224910919169 0 -0.031913504889264178 -0.034836712382877326 0 -0.032134147358095798 -0.034768933886732863 0 -0.031806343940776506 -0.035248411820749691 0 -0.032134147358095798 -0.034768933886732863 0 -0.031066325481060426 -0.035127144764809701 0 -0.031806343940776506 -0.035248411820749691 0 -0.032369980655869081 -0.03544541807243913 0 -0.031806343940776506 -0.035248411820749691 0 -0.031577607964634845 -0.034999491680357687 0 -0.033653373204855723 -0.034999443439275364 0 -0.032369980655869081 -0.03544541807243913 0 -0.031577607964634845 -0.034999491680357687 0 -0.031066325481060426 -0.035127144764809701 0 -0.031806343940776506 -0.035248411820749691 0 -0.031577607964634845 -0.034999491680357687 0 -0.031066325481060426 -0.035127144764809701 0 -0.029499631827803498 -0.034998899453766191 0 -0.030117880280602815 -0.035045735336632182 0 -0.029499631827803498 -0.034998899453766191 0 -0.028080853986614758 -0.03512411651374879 0 -0.030117880280602815 -0.035045735336632182 0 -0.031066325481060426 -0.035127144764809701 0 -0.031577607964634845 -0.034999491680357687 0 -0.029499631827803498 -0.034998899453766191 0 -0.026634108474987338 -0.035139288140900747 0 -0.027421027933174552 -0.034999061178455991 0 -0.028080853986614758 -0.03512411651374879 0 -0.026634108474987338 -0.035139288140900747 0 -0.027421027933174552 -0.034999061178455991 0 -0.025342653183709266 -0.034999196957080515 0 -0.029499631827803498 -0.034998899453766191 0 -0.027421027933174552 -0.034999061178455991 0 -0.028080853986614758 -0.03512411651374879 0 -0.026634108474987338 -0.035139288140900747 0 -0.028080853986614758 -0.03512411651374879 0 -0.025782294210307956 -0.035526632897661711 0 -0.027385841128569663 -0.035578980498917785 0 -0.025782294210307956 -0.035526632897661711 0 -0.026266481066370344 -0.03618424335175064 0 -0.028080853986614758 -0.03512411651374879 0 -0.027385841128569663 -0.035578980498917785 0 -0.025782294210307956 -0.035526632897661711 0 -0.028080853986614758 -0.03512411651374879 0 -0.027385841128569663 -0.035578980498917785 0 -0.028880340167193836 -0.035279053242541374 0 -0.028080853986614758 -0.03512411651374879 0 -0.028880340167193836 -0.035279053242541374 0 -0.030117880280602815 -0.035045735336632182 0 -0.028880340167193836 -0.035279053242541374 0 -0.030345334500682299 -0.035145328555295938 0 -0.028022049963415927 -0.036073332438690688 0 -0.027385841128569663 -0.035578980498917785 0 -0.028880340167193836 -0.035279053242541374 0 -0.028022049963415927 -0.036073332438690688 0 -0.027385841128569663 -0.035578980498917785 0 -0.028022049963415927 -0.036073332438690688 0 -0.026266481066370344 -0.03618424335175064 0 -0.032134147358095798 -0.034768933886732863 0 -0.030117880280602815 -0.035045735336632182 0 -0.030345334500682299 -0.035145328555295938 0 -0.032134147358095798 -0.034768933886732863 0 -0.031066325481060426 -0.035127144764809701 0 -0.030117880280602815 -0.035045735336632182 0 -0.028880340167193836 -0.035279053242541374 0 -0.030117880280602815 -0.035045735336632182 0 -0.030345334500682299 -0.035145328555295938 0 -0.032134147358095798 -0.034768933886732863 0 -0.030345334500682299 -0.035145328555295938 0 -0.032774580885849537 -0.034496366578139398 0 -0.033044183513035348 -0.034165512642040541 0 -0.033769777292802207 -0.034589278399443042 0 -0.030345334500682299 -0.035145328555295938 0 -0.032774580885849537 -0.034496366578139398 0 -0.030801638022107627 -0.035619288355158762 0 -0.032774580885849537 -0.034496366578139398 0 -0.031047106057547409 -0.037022899407587941 0 -0.033389447615509604 -0.037015790103400878 0 -0.032774580885849537 -0.034496366578139398 0 -0.030801638022107627 -0.035619288355158762 0 -0.031047106057547409 -0.037022899407587941 0 -0.030345334500682299 -0.035145328555295938 0 -0.030801638022107627 -0.035619288355158762 0 -0.029342533499751591 -0.036411189826258239 0 -0.030345334500682299 -0.035145328555295938 0 -0.029342533499751591 -0.036411189826258239 0 -0.028022049963415927 -0.036073332438690688 0 -0.030801638022107627 -0.035619288355158762 0 -0.029342533499751591 -0.036411189826258239 0 -0.031047106057547409 -0.037022899407587941 0 -0.029331562359273318 -0.037652983114549662 0 -0.031047106057547409 -0.037022899407587941 0 -0.030711627772903389 -0.038987399078649398 0 -0.029331562359273318 -0.037652983114549662 0 -0.027947214945624306 -0.038525747124825135 0 -0.030711627772903389 -0.038987399078649398 0 -0.029342533499751591 -0.036411189826258239 0 -0.029331562359273318 -0.037652983114549662 0 -0.031047106057547409 -0.037022899407587941 0 -0.032270753839203643 -0.038048284045312027 0 -0.031047106057547409 -0.037022899407587941 0 -0.033389447615509604 -0.037015790103400878 0 -0.032270753839203643 -0.038048284045312027 0 -0.031047106057547409 -0.037022899407587941 0 -0.030711627772903389 -0.038987399078649398 0 -0.026977609088540484 -0.036757215331556271 0 -0.028022049963415927 -0.036073332438690688 0 -0.026266481066370344 -0.03618424335175064 0 -0.026977609088540484 -0.036757215331556271 0 -0.026266481066370344 -0.03618424335175064 0 -0.025962605766603909 -0.036968084008655498 0 -0.029342533499751591 -0.036411189826258239 0 -0.028022049963415927 -0.036073332438690688 0 -0.028010413141691112 -0.037058661117075509 0 -0.026977609088540484 -0.036757215331556271 0 -0.028022049963415927 -0.036073332438690688 0 -0.028010413141691112 -0.037058661117075509 0 -0.028010413141691112 -0.037058661117075509 0 -0.026832934105972425 -0.037370502639500994 0 -0.027947214945624306 -0.038525747124825135 0 -0.029331562359273318 -0.037652983114549662 0 -0.028010413141691112 -0.037058661117075509 0 -0.027947214945624306 -0.038525747124825135 0 -0.029342533499751591 -0.036411189826258239 0 -0.029331562359273318 -0.037652983114549662 0 -0.028010413141691112 -0.037058661117075509 0 -0.026832934105972425 -0.037370502639500994 0 -0.027947214945624306 -0.038525747124825135 0 -0.025830994140138022 -0.037423067968805679 0 -0.026977609088540484 -0.036757215331556271 0 -0.028010413141691112 -0.037058661117075509 0 -0.026832934105972425 -0.037370502639500994 0 -0.026832934105972425 -0.037370502639500994 0 -0.025962605766603909 -0.036968084008655498 0 -0.025830994140138022 -0.037423067968805679 0 -0.026977609088540484 -0.036757215331556271 0 -0.026832934105972425 -0.037370502639500994 0 -0.025962605766603909 -0.036968084008655498 0 -0.027399211883284327 -0.037674875680533564 0 -0.025983551897642274 -0.037497285283604589 0 -0.026156496422472423 -0.037344582055665876 0 -0.026613517373848792 -0.036943094409769589 0 -0.025830994140138022 -0.037423067968805679 0 -0.026156496422472423 -0.037344582055665876 0 -0.025918740632463962 -0.037527308919931807 0 -0.025854621298283861 -0.037397928298455466 0 -0.026156496422472423 -0.037344582055665876 0 -0.025830994140138022 -0.037423067968805679 0 -0.025854621298283861 -0.037397928298455466 0 -0.026613517373848792 -0.036943094409769589 0 -0.026828637483050814 -0.037781405339428011 0 -0.028173334720504605 -0.036763391612418435 0 -0.026156496422472423 -0.037344582055665876 0 -0.026613517373848792 -0.036943094409769589 0 -0.026828637483050814 -0.037781405339428011 0 -0.027292116645181306 -0.036985465620095546 0 -0.028001470489083274 -0.037528326822268011 0 -0.027213093743635546 -0.037748907702904726 0 -0.027292116645181306 -0.036985465620095546 0 -0.026654181707883341 -0.037608112010205232 0 -0.027213093743635546 -0.037748907702904726 0 -0.026156496422472423 -0.037344582055665876 0 -0.026828637483050814 -0.037781405339428011 0 -0.025918740632463962 -0.037527308919931807 0 -0.027292116645181306 -0.036985465620095546 0 -0.026654181707883341 -0.037608112010205232 0 -0.025918740632463962 -0.037527308919931807 0 -0.027238155196952017 -0.037338154697822791 0 -0.025968028215716945 -0.037514731833251797 0 -0.026654181707883341 -0.037608112010205232 0 -0.025918740632463962 -0.037527308919931807 0 -0.02617888259244041 -0.03812937811573635 0 -0.032270753839203643 -0.038048284045312027 0 -0.030711627772903389 -0.038987399078649398 0 -0.033990543172149182 -0.039127182810086279 0 -0.028173334720504605 -0.036763391612418435 0 -0.028491111258718935 -0.037765734991660527 0 -0.030006636925505595 -0.036674484745849154 0 -0.029205210834678547 -0.038236765433328317 0 -0.033258729291609113 -0.034122613244645113 0 -0.027399211883284327 -0.037674875680533564 0 -0.029205210834678547 -0.038236765433328317 0 -0.026828637483050814 -0.037781405339428011 0 -0.028173334720504605 -0.036763391612418435 0 -0.028491111258718935 -0.037765734991660527 0 -0.028001470489083274 -0.037528326822268011 0 -0.028825105925584189 -0.036748446523604074 0 -0.028769692299324714 -0.037732446541647709 0 -0.027238155196952017 -0.037338154697822791 0 -0.02799660520108847 -0.037708117156489342 0 -0.027292116645181306 -0.036985465620095546 0 -0.028001470489083274 -0.037528326822268011 0 -0.028825105925584189 -0.036748446523604074 0 -0.028825105925584189 -0.036748446523604074 0 -0.0302675478287356 -0.036620689265304478 0 -0.029597414658952284 -0.037514422514122514 0 -0.02799660520108847 -0.037708117156489342 0 -0.033291560052036089 -0.032806108905018373 0 -0.028825105925584189 -0.036748446523604074 0 -0.029597414658952284 -0.037514422514122514 0 -0.028769692299324714 -0.037732446541647709 0 -0.0302675478287356 -0.036620689265304478 0 -0.030627372067146882 -0.03773637172709509 0 -0.029597414658952284 -0.037514422514122514 0 -0.034998349075199421 -0.028792031133231113 0 -0.034998892713509172 -0.024294251359344751 0 -0.035678307865671853 -0.02634277084312061 0 -0.033291560052036089 -0.032806108905018373 0 -0.03423891058972918 -0.032658495372032165 0 -0.028491111258718935 -0.037765734991660527 0 -0.030351358626083513 -0.03764405101847447 0 -0.030006636925505595 -0.036674484745849154 0 -0.033291560052036089 -0.032806108905018373 0 -0.033258729291609113 -0.034122613244645113 0 -0.033258729291609113 -0.034122613244645113 0 -0.035804430319254378 -0.030859241980794403 0 -0.035795205884047596 -0.029397967587772546 0 -0.036007485774537495 -0.030087798738737265 0 -0.035314751666401849 -0.030057568204533317 0 -0.035795205884047596 -0.029397967587772546 0 -0.035314751666401849 -0.030057568204533317 0 -0.035683835953474775 -0.028575097352190024 0 -0.035314751666401849 -0.030057568204533317 0 -0.035683835953474775 -0.028575097352190024 0 -0.035061911925676058 -0.030401036590427123 0 -0.038175002751711984 -0.028476323932501824 0 -0.036967119447227713 -0.027656704143416509 0 -0.035683835953474775 -0.028575097352190024 0 -0.033291560052036089 -0.032806108905018373 0 -0.037203973033580015 -0.028098153959092643 0 -0.038175002751711984 -0.028476323932501824 0 -0.036967119447227713 -0.027656704143416509 0 -0.037482722395029783 -0.026422845840878971 0 -0.036967119447227713 -0.027656704143416509 0 -0.035683835953474775 -0.028575097352190024 0 -0.035678307865671853 -0.02634277084312061 0 -0.035683835953474775 -0.028575097352190024 0 -0.034998349075199421 -0.028792031133231113 0 -0.035678307865671853 -0.02634277084312061 0 -0.035683835953474775 -0.028575097352190024 0 -0.035061911925676058 -0.030401036590427123 0 -0.034998349075199421 -0.028792031133231113 0 -0.035269687420556202 -0.031578654122517168 0 -0.035061911925676058 -0.030401036590427123 0 -0.034998349075199421 -0.028792031133231113 0 -0.035269687420556202 -0.031578654122517168 0 -0.035061911925676058 -0.030401036590427123 0 -0.033946769718191362 -0.032168485335997823 0 -0.032774580885849537 -0.034496366578139398 0 -0.033946769718191362 -0.032168485335997823 0 -0.034325892197404825 -0.031974453973283454 0 -0.033012106285082762 -0.033968649896275988 0 -0.032774580885849537 -0.034496366578139398 0 -0.033946769718191362 -0.032168485335997823 0 -0.033258729291609113 -0.034122613244645113 0 -0.033769777292802207 -0.034589278399443042 0 -0.032270753839203643 -0.038048284045312027 0 -0.033990543172149182 -0.039127182810086279 0 -0.033389447615509604 -0.037015790103400878 0 -0.033946769718191362 -0.032168485335997823 0 -0.034644782664760447 -0.031168199862237827 0 -0.034325892197404825 -0.031974453973283454 0 -0.034957377018620436 -0.030776590653814228 0 -0.034644782664760447 -0.031168199862237827 0 -0.034325892197404825 -0.031974453973283454 0 -0.034957377018620436 -0.030776590653814228 0 -0.035314751666401849 -0.030057568204533317 0 -0.034644782664760447 -0.031168199862237827 0 -0.035061911925676058 -0.030401036590427123 0 -0.033946769718191362 -0.032168485335997823 0 -0.034644782664760447 -0.031168199862237827 0 -0.035314751666401849 -0.030057568204533317 0 -0.035061911925676058 -0.030401036590427123 0 -0.034644782664760447 -0.031168199862237827 0 -0.020353849730756813 -0.035939821816286334 0 -0.019982221278576004 -0.035604045977709213 0 -0.019977795120583956 -0.03604566023765015 0 -0.018599365632807979 -0.036694093582421664 0 -0.019099423947914328 -0.035474246595395942 0 -0.017373788669137108 -0.037133514212177705 0 -0.017101176463434609 -0.038173391952775935 0 -0.016747238753501436 -0.037825130337115202 0 -0.020353849730756813 -0.035939821816286334 0 -0.020424677224144854 -0.035520857803975722 0 -0.021005252283056525 -0.035680278283543143 0 -0.020353849730756813 -0.035939821816286334 0 -0.020424677224144854 -0.035520857803975722 0 -0.019982221278576004 -0.035604045977709213 0 -0.020636768580943824 -0.035565816441875078 0 -0.02082960377499855 -0.035644128835084325 0 -0.020424677224144854 -0.035520857803975722 0 -0.019982221278576004 -0.035604045977709213 0 -0.019626573554385695 -0.035347073072835092 0 -0.017373788669137108 -0.037133514212177705 0 -0.017838072510313847 -0.036123010284604302 0 -0.016964408025052568 -0.036676576586763751 0 -0.018599365632807979 -0.036694093582421664 0 -0.018721891695486301 -0.035571391360769138 0 -0.017838072510313847 -0.036123010284604302 0 -0.016722476266356583 -0.03612173132790495 0 -0.016964408025052568 -0.036676576586763751 0 -0.017838072510313847 -0.036123010284604302 0 -0.018479086655185935 -0.03499975181577606 0 -0.016881335952334389 -0.034999975295069222 0 -0.018721891695486301 -0.035571391360769138 0 -0.018479992245010787 -0.034999969832567042 0 -0.019626573554385695 -0.035347073072835092 0 -0.018482197518592449 -0.034999736176078537 0 -0.020050649663885946 -0.035317015564230336 0 -0.018482197518592449 -0.034999736176078537 0 -0.020050649663885946 -0.035317015564230336 0 -0.019833218156173543 -0.034999645308604194 0 -0.020424677224144854 -0.035520857803975722 0 -0.019626573554385695 -0.035347073072835092 0 -0.020050649663885946 -0.035317015564230336 0 -0.020424677224144854 -0.035520857803975722 0 -0.020050649663885946 -0.035317015564230336 0 -0.02084197005706058 -0.03539949918473187 0 -0.020050649663885946 -0.035317015564230336 0 -0.02084197005706058 -0.03539949918473187 0 -0.020999551371055584 -0.035216427261059002 0 -0.02084197005706058 -0.03539949918473187 0 -0.020999551371055584 -0.035216427261059002 0 -0.021378083347106145 -0.035345418341993513 0 -0.020050649663885946 -0.035317015564230336 0 -0.020999551371055584 -0.035216427261059002 0 -0.019833218156173543 -0.034999645308604194 0 -0.020999551371055584 -0.035216427261059002 0 -0.019833218156173543 -0.034999645308604194 0 -0.021185412792544291 -0.034998987774939941 0 -0.020999551371055584 -0.035216427261059002 0 -0.021185412792544291 -0.034998987774939941 0 -0.022256878538617068 -0.034966519298869715 0 -0.021186275588196645 -0.034999947260190331 0 -0.022651323446894897 -0.035391227770794231 0 -0.020999551371055584 -0.035216427261059002 0 -0.021378083347106145 -0.035345418341993513 0 -0.022256878538617068 -0.034966519298869715 0 -0.021816481592589577 -0.035586219732561493 0 -0.021378083347106145 -0.035345418341993513 0 -0.022256878538617068 -0.034966519298869715 0 -0.021816481592589577 -0.035586219732561493 0 -0.021378083347106145 -0.035345418341993513 0 -0.021068888785428466 -0.035548127659863253 0 -0.020424677224144854 -0.035520857803975722 0 -0.021068888785428466 -0.035548127659863253 0 -0.021005252283056525 -0.035680278283543143 0 -0.02084197005706058 -0.03539949918473187 0 -0.021378083347106145 -0.035345418341993513 0 -0.021068888785428466 -0.035548127659863253 0 -0.020424677224144854 -0.035520857803975722 0 -0.02084197005706058 -0.03539949918473187 0 -0.021068888785428466 -0.035548127659863253 0 -0.021068888785428466 -0.035548127659863253 0 -0.021005252283056525 -0.035680278283543143 0 -0.02168085252228364 -0.035774571655042331 0 -0.021816481592589577 -0.035586219732561493 0 -0.02168085252228364 -0.035774571655042331 0 -0.022685165824871473 -0.035891857141059184 0 -0.02168085252228364 -0.035774571655042331 0 -0.022685165824871473 -0.035891857141059184 0 -0.022465690327227856 -0.036041961114612033 0 -0.021816481592589577 -0.035586219732561493 0 -0.021068888785428466 -0.035548127659863253 0 -0.02168085252228364 -0.035774571655042331 0 -0.022685165824871473 -0.035891857141059184 0 -0.02403976417399243 -0.035803032222306588 0 -0.022256878538617068 -0.034966519298869715 0 -0.021816481592589577 -0.035586219732561493 0 -0.022685165824871473 -0.035891857141059184 0 -0.022256878538617068 -0.034966519298869715 0 -0.02403976417399243 -0.035803032222306588 0 -0.025007342527291608 -0.036093972301096303 0 -0.023861940343058018 -0.036345284200281852 0 -0.022685165824871473 -0.035891857141059184 0 -0.02403976417399243 -0.035803032222306588 0 -0.023861940343058018 -0.036345284200281852 0 -0.02390831695871392 -0.03584400878063447 0 -0.022651323446894897 -0.035391227770794231 0 -0.021186694944620568 -0.034999993796040865 0 -0.023009206680884721 -0.035818465498910886 0 -0.023264749350887959 -0.034999391424978835 0 -0.023009206680884721 -0.035818465498910886 0 -0.023264749350887959 -0.034999391424978835 0 -0.024259585596045224 -0.035490573515896906 0 -0.02403976417399243 -0.035803032222306588 0 -0.023009206680884721 -0.035818465498910886 0 -0.024259585596045224 -0.035490573515896906 0 -0.026634108474987338 -0.035139288140900747 0 -0.025342653183709266 -0.034999196957080515 0 -0.025782294210307956 -0.035526632897661711 0 -0.024259585596045224 -0.035490573515896906 0 -0.025342653183709266 -0.034999196957080515 0 -0.025782294210307956 -0.035526632897661711 0 -0.023264749350887959 -0.034999391424978835 0 -0.024259585596045224 -0.035490573515896906 0 -0.025342653183709266 -0.034999196957080515 0 -0.02403976417399243 -0.035803032222306588 0 -0.025782294210307956 -0.035526632897661711 0 -0.025007342527291608 -0.036093972301096303 0 -0.02403976417399243 -0.035803032222306