<?xml version="1.0"?>
<VTKFile type="UnstructuredGrid" version="0.1" byte_order="LittleEndian">
<UnstructuredGrid>
<Piece NumberOfPoints="30618" NumberOfCells="10744">
<Points>
<DataArray type="Float64" NumberOfComponents="3" format="ascii">
-0.49427958746526202 -0.49999999999999512 0 -0.4943900888896422 -0.47349089190363358 0 -0.49427958746526202 -0.49999999999999512 0 -0.5 -0.5 0 -0.4943900888896422 -0.47349089190363358 0 -0.5 -0.5 0 -0.4943900888896422 -0.47349089190363358 0 -0.5 -0.44150235328842258 0 -0.49427958746526202 -0.49999999999999512 0 -0.4943900888896422 -0.47349089190363358 0 -0.48436842240857858 -0.48714093788813112 0 -0.49427958746526202 -0.49999999999999512 0 -0.47650045540741742 -0.5 0 -0.48436842240857858 -0.48714093788813112 0 -0.4943900888896422 -0.47349089190363358 0 -0.47066899942757451 -0.47576530412887819 0 -0.48436842240857858 -0.48714093788813112 0 -0.47066899942757451 -0.47576530412887819 0 -0.47650045540741742 -0.5 0 -0.48436842240857858 -0.48714093788813112 0 -0.47066899942757451 -0.47576530412887819 0 -0.45872132334957288 -0.49999999999999928 0 -0.45242967983978871 -0.4846708604340636 0 -0.47066899942757451 -0.47576530412887819 0 -0.47650045540741742 -0.5 0 -0.45872132334957288 -0.49999999999999928 0 -0.47066899942757451 -0.47576530412887819 0 -0.45872132334957288 -0.49999999999999928 0 -0.47066899942757451 -0.47576530412887819 0 -0.45242967983978871 -0.4846708604340636 0 -0.45249717469141032 -0.46588444847215849 0 -0.43763952177061649 -0.47770500498713542 0 -0.45242967983978871 -0.4846708604340636 0 -0.45249717469141032 -0.46588444847215849 0 -0.43763952177061649 -0.47770500498713542 0 -0.44291044788006362 -0.49999999999999939 0 -0.45242967983978871 -0.4846708604340636 0 -0.43763952177061649 -0.47770500498713542 0 -0.44291044788006362 -0.49999999999999939 0 -0.45872132334957288 -0.49999999999999928 0 -0.44291044788006362 -0.49999999999999939 0 -0.45242967983978871 -0.4846708604340636 0 -0.44838221886832419 -0.4464230337388379 0 -0.4323685956611692 -0.45541000997427139 0 -0.435988539966085 -0.44148905847597392 0 -0.44838221886832419 -0.4464230337388379 0 -0.44213238819953832 -0.43491600865963681 0 -0.435988539966085 -0.44148905847597392 0 -0.44838221886832419 -0.4464230337388379 0 -0.45249717469141032 -0.46588444847215849 0 -0.45755175660874181 -0.45423607616472811 0 -0.44838221886832419 -0.4464230337388379 0 -0.45249717469141032 -0.46588444847215849 0 -0.4323685956611692 -0.45541000997427139 0 -0.43763952177061649 -0.47770500498713542 0 -0.45249717469141032 -0.46588444847215849 0 -0.4323685956611692 -0.45541000997427139 0 -0.47066899942757451 -0.47576530412887819 0 -0.45249717469141032 -0.46588444847215849 0 -0.4675747862741928 -0.45726336772241771 0 -0.45249717469141032 -0.46588444847215849 0 -0.45755175660874181 -0.45423607616472811 0 -0.4675747862741928 -0.45726336772241771 0 -0.44838221886832419 -0.4464230337388379 0 -0.46897642374787268 -0.44262015471777721 0 -0.45660235518767722 -0.42786105997071933 0 -0.44838221886832419 -0.4464230337388379 0 -0.45755175660874181 -0.45423607616472811 0 -0.46897642374787268 -0.44262015471777721 0 -0.45755175660874181 -0.45423607616472811 0 -0.4675747862741928 -0.45726336772241771 0 -0.46897642374787268 -0.44262015471777721 0 -0.4943900888896422 -0.47349089190363358 0 -0.5 -0.44150235328842258 0 -0.49450059031402238 -0.44698178380727199 0 -0.46897642374787268 -0.44262015471777721 0 -0.48473746643246862 -0.43972512984246093 0 -0.48043585850414389 -0.43127077967876992 0 -0.46897642374787268 -0.44262015471777721 0 -0.4826166755055763 -0.45153060825775743 0 -0.48473746643246862 -0.43972512984246093 0 -0.4675747862741928 -0.45726336772241771 0 -0.46897642374787268 -0.44262015471777721 0 -0.4826166755055763 -0.45153060825775743 0 -0.47066899942757451 -0.47576530412887819 0 -0.4826166755055763 -0.45153060825775743 0 -0.4943900888896422 -0.47349089190363358 0 -0.47066899942757451 -0.47576530412887819 0 -0.4826166755055763 -0.45153060825775743 0 -0.47066899942757451 -0.47576530412887819 0 -0.4675747862741928 -0.45726336772241771 0 -0.4826166755055763 -0.45153060825775743 0 -0.4943900888896422 -0.47349089190363358 0 -0.49450059031402238 -0.44698178380727199 0 -0.4943900888896422 -0.47349089190363358 0 -0.4826166755055763 -0.45153060825775743 0 -0.49450059031402238 -0.44698178380727199 0 -0.4826166755055763 -0.45153060825775743 0 -0.48473746643246862 -0.43972512984246093 0 -0.49450059031402238 -0.44698178380727199 0 -0.5 -0.44150235328842258 0 -0.49461109173840262 -0.42047267571091063 0 -0.5 -0.39656953661894012 0 -0.49450059031402238 -0.44698178380727199 0 -0.49461109173840262 -0.42047267571091063 0 -0.48473746643246862 -0.43972512984246093 0 -0.49461109173840262 -0.42047267571091063 0 -0.48043585850414389 -0.43127077967876992 0 -0.5 -0.44150235328842258 0 -0.49450059031402238 -0.44698178380727199 0 -0.49461109173840262 -0.42047267571091063 0 -0.48473746643246862 -0.43972512984246093 0 -0.49450059031402238 -0.44698178380727199 0 -0.49461109173840262 -0.42047267571091063 0 -0.49461109173840262 -0.42047267571091063 0 -0.4947215931627828 -0.39396356761454909 0 -0.49461109173840262 -0.42047267571091063 0 -0.48393842445605872 -0.40713040098299402 0 -0.4947215931627828 -0.39396356761454909 0 -0.49461109173840262 -0.42047267571091063 0 -0.48393842445605872 -0.40713040098299402 0 -0.47214510592166908 -0.41939033492402211 0 -0.48393842445605872 -0.40713040098299402 0 -0.47214510592166908 -0.41939033492402211 0 -0.47427590700138023 -0.39469502568249409 0 -0.46897642374787268 -0.44262015471777721 0 -0.47214510592166908 -0.41939033492402211 0 -0.48043585850414389 -0.43127077967876992 0 -0.49461109173840262 -0.42047267571091063 0 -0.47214510592166908 -0.41939033492402211 0 -0.48043585850414389 -0.43127077967876992 0 -0.5 -0.39656953661894012 0 -0.4947215931627828 -0.39396356761454909 0 -0.48030453056746109 -0.36861144308094029 0 -0.49461109173840262 -0.42047267571091063 0 -0.5 -0.39656953661894012 0 -0.4947215931627828 -0.39396356761454909 0 -0.48393842445605872 -0.40713040098299402 0 -0.4947215931627828 -0.39396356761454909 0 -0.47427590700138023 -0.39469502568249409 0 -0.47427590700138023 -0.39469502568249409 0 -0.48030453056746109 -0.36861144308094029 0 -0.4947215931627828 -0.39396356761454909 0 -0.47427590700138023 -0.39469502568249409 0 -0.48030453056746109 -0.36861144308094029 0 -0.47427590700138023 -0.39469502568249409 0 -0.46334377193483078 -0.37842983215876019 0 -0.48030453056746109 -0.36861144308094029 0 -0.46334377193483078 -0.37842983215876019 0 -0.45726543839001688 -0.40541672899881109 0 -0.44416021803808919 -0.38243724496113263 0 -0.47427590700138023 -0.39469502568249409 0 -0.46334377193483078 -0.37842983215876019 0 -0.45726543839001688 -0.40541672899881109 0 -0.45726543839001688 -0.40541672899881109 0 -0.43814282409564848 -0.40387353522152758 0 -0.44416021803808919 -0.38243724496113263 0 -0.43814282409564848 -0.40387353522152758 0 -0.44416021803808919 -0.38243724496113263 0 -0.4329908326547659 -0.40007252460533121 0 -0.43814282409564848 -0.40387353522152758 0 -0.44416021803808919 -0.38243724496113263 0 -0.46897642374787268 -0.44262015471777721 0 -0.47214510592166908 -0.41939033492402211 0 -0.45660235518767722 -0.42786105997071933 0 -0.47214510592166908 -0.41939033492402211 0 -0.47427590700138023 -0.39469502568249409 0 -0.45726543839001688 -0.40541672899881109 0 -0.47214510592166908 -0.41939033492402211 0 -0.45726543839001688 -0.40541672899881109 0 -0.45660235518767722 -0.42786105997071933 0 -0.45726543839001688 -0.40541672899881109 0 -0.45660235518767722 -0.42786105997071933 0 -0.44309263043645408 -0.41812298423377797 0 -0.45726543839001688 -0.40541672899881109 0 -0.43814282409564848 -0.40387353522152758 0 -0.44309263043645408 -0.41812298423377797 0 -0.43814282409564848 -0.40387353522152758 0 -0.44309263043645408 -0.41812298423377797 0 -0.43209373842114163 -0.42530092927673752 0 -0.44838221886832419 -0.4464230337388379 0 -0.45660235518767722 -0.42786105997071933 0 -0.44213238819953832 -0.43491600865963681 0 -0.45660235518767722 -0.42786105997071933 0 -0.44213238819953832 -0.43491600865963681 0 -0.43132710435572019 -0.42815377149591122 0 -0.45660235518767722 -0.42786105997071933 0 -0.44309263043645408 -0.41812298423377797 0 -0.43132710435572019 -0.42815377149591122 0 -0.45660235518767722 -0.42786105997071933 0 -0.43132710435572019 -0.42815377149591122 0 -0.44213238819953832 -0.43491600865963681 0 -0.42986244815509678 -0.43337144475258638 0 -0.435988539966085 -0.44148905847597392 0 -0.44213238819953832 -0.43491600865963681 0 -0.42986244815509678 -0.43337144475258638 0 -0.43132710435572019 -0.42815377149591122 0 -0.42986244815509678 -0.43337144475258638 0 -0.43132710435572019 -0.42815377149591122 0 -0.42986244815509678 -0.43337144475258638 0 -0.42494843276815808 -0.42822764260015772 0 -0.42026026496879931 -0.43681168621285732 0 -0.42986244815509678 -0.43337144475258638 0 -0.42494843276815808 -0.42822764260015772 0 -0.43132710435572019 -0.42815377149591122 0 -0.42494843276815808 -0.42822764260015772 0 -0.43209373842114163 -0.42530092927673752 0 -0.42214799869492048 -0.41876725226122891 0 -0.42494843276815808 -0.42822764260015772 0 -0.43209373842114163 -0.42530092927673752 0 -0.42494843276815808 -0.42822764260015772 0 -0.43209373842114163 -0.42530092927673752 0 -0.43132710435572019 -0.42815377149591122 0 -0.42494843276815808 -0.42822764260015772 0 -0.43132710435572019 -0.42815377149591122 0 -0.44309263043645408 -0.41812298423377797 0 -0.43209373842114163 -0.42530092927673752 0 -0.43132710435572019 -0.42815377149591122 0 -0.43209373842114163 -0.42530092927673752 0 -0.43132710435572019 -0.42815377149591122 0 -0.43814282409564848 -0.40387353522152758 0 -0.43209373842114163 -0.42530092927673752 0 -0.43814282409564848 -0.40387353522152758 0 -0.43209373842114163 -0.42530092927673752 0 -0.42736227186559528 -0.41250939947999687 0 -0.43814282409564848 -0.40387353522152758 0 -0.42736227186559528 -0.41250939947999687 0 -0.42798743510346321 -0.40461924019690898 0
[...]
<PointData Scalars="" Vectors="displacement," Tensors="">
<DataArray type="Float64" Name="displacement" NumberOfComponents="3" format="ascii">
0.034999629403585308 0.034599543181021597 0 0.034454298863544661 0.034468238755886213 0 0.034999174870261891 0.034603989560678811 0 0.035000528277007489 0.034997086289146016 0 0.033184636423364756 0.035360110373466432 0 0.035000528277007489 0.034997086289146016 0 0.033184636423364756 0.035360110373466432 0 0.03090447684198017 0.035001520748495211 0 0.035000107585533985 0.034598512842786644 0 0.035917558463309539 0.033620763301011457 0 0.035557525528837439 0.033720246859398284 0 0.035000107585533985 0.034598512842786644 0 0.034999828397813251 0.03335506766184522 0 0.035557525528837439 0.033720246859398284 0 0.035917558463309539 0.033620763301011457 0 0.035946092772845953 0.033356263880584082 0 0.035557525528837439 0.033720246859398284 0 0.035946092772845953 0.033356263880584082 0 0.034999828397813251 0.03335506766184522 0 0.035557525528837439 0.033720246859398284 0 0.035311930263858926 0.033106798249410353 0 0.034999356410959019 0.032109303168375479 0 0.035212134851958357 0.032186525882458655 0 0.035946092772845953 0.033356263880584082 0 0.034999828397813251 0.03335506766184522 0 0.034999947861685358 0.032111184916675153 0 0.035615663867187432 0.033193022247026624 0 0.035000102690170488 0.032110859502164399 0 0.035311930263858926 0.033106798249410353 0 0.035212134851958357 0.032186525882458655 0 0.035370658349601687 0.032810256365296032 0 0.035157653300520911 0.031959166354106922 0 0.035212134851958357 0.032186525882458655 0 0.035370658349601687 0.032810256365296032 0 0.035157653300520911 0.031959166354106922 0 0.034999797895697786 0.031006604275785919 0 0.035212134851958357 0.032186525882458655 0 0.035436301069559015 0.031323934931271287 0 0.034999869262352074 0.031003956877842964 0 0.034999356410959019 0.032109303168375479 0 0.034999797895697786 0.031006604275785919 0 0.035212134851958357 0.032186525882458655 0 0.035721316447100471 0.033294076544800662 0 0.035887975578858984 0.031512262457906538 0 0.036241671591773793 0.032280086947300453 0 0.035721316447100471 0.033294076544800662 0 0.036036023133129959 0.033147706644351987 0 0.036241671591773793 0.032280086947300453 0 0.035721316447100471 0.033294076544800662 0 0.035370658349601687 0.032810256365296032 0 0.035495661886723956 0.033342273452013765 0 0.035721316447100471 0.033294076544800662 0 0.035370658349601687 0.032810256365296032 0 0.035887975578858984 0.031512262457906538 0 0.035157653300520911 0.031959166354106922 0 0.035370658349601687 0.032810256365296032 0 0.035887975578858984 0.031512262457906538 0 0.035311930263858926 0.033106798249410353 0 0.035370658349601687 0.032810256365296032 0 0.035446438669413716 0.033461861299236569 0 0.035370658349601687 0.032810256365296032 0 0.035495661886723956 0.033342273452013765 0 0.035446438669413716 0.033461861299236569 0 0.035721316447100471 0.033294076544800662 0 0.03523059361794794 0.034046003879317055 0 0.034699332545763135 0.035119863398999349 0 0.035721316447100471 0.033294076544800662 0 0.035495661886723956 0.033342273452013765 0 0.03523059361794794 0.034046003879317055 0 0.035495661886723956 0.033342273452013765 0 0.035446438669413716 0.033461861299236569 0 0.03523059361794794 0.034046003879317055 0 0.033184636423364756 0.035360110373466432 0 0.03090447684198017 0.035001520748495211 0 0.031298225067171226 0.035384635765981665 0 0.03523059361794794 0.034046003879317055 0 0.034675537779768062 0.033459556282365299 0 0.033916933739062155 0.033764775779682822 0 0.03523059361794794 0.034046003879317055 0 0.035456349708615054 0.033506524529969356 0 0.034675537779768062 0.033459556282365299 0 0.035446438669413716 0.033461861299236569 0 0.03523059361794794 0.034046003879317055 0 0.035456349708615054 0.033506524529969356 0 0.035615663867187432 0.033193022247026624 0 0.035486801150508493 0.033467959754199784 0 0.035917558463309539 0.033620763301011457 0 0.035946092772845953 0.033356263880584082 0 0.035456349708615054 0.033506524529969356 0 0.035311930263858926 0.033106798249410353 0 0.035446438669413716 0.033461861299236569 0 0.035456349708615054 0.033506524529969356 0 0.034454298863544661 0.034468238755886213 0 0.033243171140041099 0.03414774315284369 0 0.035917558463309539 0.033620763301011457 0 0.035456349708615054 0.033506524529969356 0 0.035263492347936055 0.032892552997772252 0 0.035456349708615054 0.033506524529969356 0 0.034675537779768062 0.033459556282365299 0 0.035263492347936055 0.032892552997772252 0 0.03090447684198017 0.035001520748495211 0 0.029407154606067423 0.035372859002674333 0 0.027762445624363502 0.034996498173858068 0 0.033243171140041099 0.03414774315284369 0 0.03097482509379245 0.034126405201998125 0 0.034675537779768062 0.033459556282365299 0 0.032552133737128244 0.032651667510606844 0 0.033916933739062155 0.033764775779682822 0 0.03090447684198017 0.035001520748495211 0 0.031298225067171226 0.035384635765981665 0 0.029407154606067423 0.035372859002674333 0 0.034675537779768062 0.033459556282365299 0 0.035263492347936055 0.032892552997772252 0 0.032552133737128244 0.032651667510606844 0 0.03097482509379245 0.034126405201998125 0 0.028121170287557402 0.034745107056096437 0 0.032552133737128244 0.032651667510606844 0 0.030361084255959955 0.034453648413752626 0 0.027772669546502479 0.034935335496412749 0 0.032552133737128244 0.032651667510606844 0 0.030361084255959955 0.034453648413752626 0 0.032700849166394812 0.034689699843286806 0 0.030361084255959955 0.034453648413752626 0 0.032700849166394812 0.034689699843286806 0 0.028832241563503939 0.03537782807098365 0 0.03523059361794794 0.034046003879317055 0 0.032700849166394812 0.034689699843286806 0 0.033916933739062155 0.033764775779682822 0 0.032552133737128244 0.032651667510606844 0 0.032700849166394812 0.034689699843286806 0 0.033916933739062155 0.033764775779682822 0 0.027762445624363502 0.034996498173858068 0 0.027772669546502479 0.034935335496412749 0 0.026150129376314155 0.035844806059435061 0 0.029407154606067423 0.035372859002674333 0 0.027762445624363502 0.034996498173858068 0 0.027772669546502479 0.034935335496412749 0 0.030361084255959955 0.034453648413752626 0 0.027772669546502479 0.034935335496412749 0 0.028832241563503939 0.03537782807098365 0 0.02859591360402829 0.035423379479306127 0 0.026490957861560738 0.035227426645902046 0 0.027772669546502479 0.034935335496412749 0 0.028832241563503939 0.03537782807098365 0 0.026150129376314155 0.035844806059435061 0 0.028832241563503939 0.03537782807098365 0 0.02753819203533129 0.0361340406989972 0 0.026695461314857522 0.034735983003853416 0 0.02753819203533129 0.0361340406989972 0 0.030583170576909242 0.036365077731409096 0 0.027955496962460701 0.037985382333994407 0 0.028832241563503939 0.03537782807098365 0 0.02753819203533129 0.0361340406989972 0 0.030583170576909242 0.036365077731409096 0 0.030583170576909242 0.036365077731409096 0 0.030466142686107339 0.038740799865283303 0 0.027955496962460701 0.037985382333994407 0 0.028703754609181262 0.030691230695994255 0 0.028666574121558538 0.030612325060061486 0 0.02877736463315058 0.030571541125917957 0 0.029253586994224159 0.034859020690923274 0 0.028804582473923066 0.034277031531269 0 0.03523059361794794 0.034046003879317055 0 0.032700849166394812 0.034689699843286806 0 0.034699332545763135 0.035119863398999349 0 0.032700849166394812 0.034689699843286806 0 0.028832241563503939 0.03537782807098365 0 0.030583170576909242 0.036365077731409096 0 0.032700849166394812 0.034689699843286806 0 0.030583170576909242 0.036365077731409096 0 0.034699332545763135 0.035119863398999349 0 0.030583170576909242 0.036365077731409096 0 0.034699332545763135 0.035119863398999349 0 0.032760409054295218 0.037976539019484661 0 0.030583170576909242 0.036365077731409096 0 0.030466142686107339 0.038740799865283303 0 0.032760409054295218 0.037976539019484661 0 0.030466142686107339 0.038740799865283303 0 0.032760409054295218 0.037976539019484661 0 0.034060752014437951 0.039985439716079582 0 0.035721316447100471 0.033294076544800662 0 0.034699332545763135 0.035119863398999349 0 0.036036023133129959 0.033147706644351987 0 0.034699332545763135 0.035119863398999349 0 0.036036023133129959 0.033147706644351987 0 0.037569994472386604 0.031852296671474184 0 0.034699332545763135 0.035119863398999349 0 0.032760409054295218 0.037976539019484661 0 0.034599860644434675 0.040145734370518146 0 0.035270494282096373 0.035943826337324465 0 0.034660307892623254 0.033626638890081162 0 0.036036023133129959 0.033147706644351987 0 0.037109092914212896 0.031632685956259322 0 0.036241671591773793 0.032280086947300453 0 0.036036023133129959 0.033147706644351987 0 0.037109092914212896 0.031632685956259322 0 0.037569994472386604 0.031852296671474184 0 0.03610107149083211 0.033376857498304054 0 0.034660307892623254 0.033626638890081162 0 0.037109092914212896 0.031632685956259322 0 0.037805933905223417 0.031046047228273903 0 0.037257757273153627 0.030574165869832113 0 0.037109092914212896 0.031632685956259322 0 0.037805933905223417 0.031046047228273903 0 0.037781024035128216 0.031836964328609413 0 0.027302748152990265 0.03005050899389761 0 0.027495614306031962 0.030468097699948186 0 0.027835289932087715 0.029880627155048661 0 0.034553931422503806 0.030321987755094048 0 0.032422099466471163 0.032926748232993373 0 0.033730293735354418 0.031168266610050274 0 0.034631001601004706 0.033398501238621647 0 0.03374672490228893 0.033159092713581952 0 0.034553931422503806 0.030321987755094048 0 0.034660307892623254 0.033626638890081162 0 0.032760409054295218 0.037976539019484661 0 0.034060752014437951 0.039985439716079582 0 0.034599860644434675 0.040145734370518146 0 0.032422099466471163 0.032926748232993373 0 0.034660307892623254 0.033626638890081162 0 0.029253586994224159 0.034859020690923274 0 0.032422099466471163 0.032926748232993373 0 0.028703754609181262 0.030691230695994255 0 0.027495614306031962 0.030468097699948186 0 0.028194681365166566 0.030187935263386183 0 0.028703754609181262 0.030691230695994255 0 0.028194681365166566 0.030187935263386183 0 0.028589280855028282 0.030253671205542829 0 0.028194681365166566 0.030187935263386183 0 0.027835289932087715 0.029880627155048661 0 0.028312425870490092 0.029546466916241177 0 0.028194681365166566 0.030187935263386183 0 0.028312425870490092 0.029546466916241177 0 0.028589280855028282 0.030253671205542829 0 0.027495614306031962 0.030468097699948186 0 0.028194681365166566 0.030187935263386183 0 0.027835289932087715 0.029880627155048661 0 0.028312425870490092 0.029546466916241177 0 0.027765765870867664 0.02933873944257007 0 0.028158128329390467 0.028563520898154209 0 0.028312425870490092 0.029546466916241177 0 0.028777608111635669 0.028800680919486631 0 0.028158128329390467 0.028563520898154209 0 0.027835289932087715 0.029880627155048661 0 0.028312425870490092 0.029546466916241177 0 0.027765765870867664 0.02933873944257007 0 0.037805933905223417 0.031046047228273903 0 0.037257757273153627 0.030574165869832113 0 0.037722127500393263 0.029041313381917899 0 0.034553931422503806 0.030321987755094048 0 0.03818616772757831 0.028281900441529194 0 0.038356065435523182 0.028601556671094066 0 0.037999104188639998 0.027453969606893041 0 0.038422873603315394 0.027350920615634721 0 0.034553931422503806 0.030321987755094048 0 0.03266030516514009 0.027712714504077657 0 0.027302748152990265 0.03005050899389761 0 0.027765765870867664 0.02933873944257007 0 0.027222098388931797 0.028625051651217526 0 0.027302748152990265 0.03005050899389761 0 0.027835289932087715 0.029880627155048661 0 0.027765765870867664 0.02933873944257007 0 0.030458425719717238 0.02973172205129742 0 0.02537537840331756 0.031996727965186031 0 0.02877736463315058 0.030571541125917957 0 0.029349802048732835 0.029640169970240198 0 0.030175835949895168 0.029706473433879138 0 0.028644475703054319 0.030667304852327347 0 0.02877736463315058 0.030571541125917957 0 0.028587810845792087 0.030805470942239 0 0.028666574121558538 0.030612325060061486 0 0.028644475703054319 0.030667304852327347 0 0.02877736463315058 0.030571541125917957 0 0.028644475703054319 0.030667304852327347 0 0.028587810845792087 0.030805470942239 0 0.028522011797263137 0.030688341723076759 0 0.028666574121558538 0.030612325060061486 0 0.028644475703054319 0.030667304852327347 0 0.028522011797263137 0.030688341723076759 0 0.02877736463315058 0.030571541125917957 0 0.028776869947845302 0.029873503879321636 0 0.029349802048732835 0.029640169970240198 0 0.028703754609181262 0.030691230695994255 0 0.02877736463315058 0.030571541125917957 0 0.028589280855028282 0.030253671205542829 0 0.02877736463315058 0.030571541125917957 0 0.028589280855028282 0.030253671205542829 0 0.028776869947845302 0.029873503879321636 0 0.028312425870490092 0.029546466916241177 0 0.028589280855028282 0.030253671205542829 0 0.028776869947845302 0.029873503879321636 0 0.029162146270789318 0.028921831386028458 0 0.029349802048732835 0.029640169970240198 0 0.029730445474346664 0.028604568015779458 0 0.028312425870490092 0.029546466916241177 0 0.028776869947845302 0.029873503879321636 0 0.028874235184799257 0.029357921345721353 0 0.028312425870490092 0.029546466916241177 0 0.028874235184799257 0.029357921345721353 0 0.028777608111635669 0.028800680919486631 0 0.028874235184799257 0.029357921345721353 0 0.029162146270789318 0.028921831386028458 0 0.028777608111635669 0.028800680919486631 0 0.028874235184799257 0.029357921345721353 0 0.029162146270789318 0.028921831386028458 0 0.029349802048732835 0.029640169970240198 0 0.028776869947845302 0.029873503879321636 0 0.028874235184799257 0.029357921345721353 0 0.029349802048732835 0.029640169970240198 0 0.029365668357623869 0.029601114548770797 0 0.027385308482791679 0.027638490426944818 0 0.029349802048732835 0.029640169970240198 0 0.029896518378952682 0.029175340759414782 0 0.029621988130977221 0.028654615048649159 0 0.029349802048732835 0.029640169970240198 0 0.029904672600832398 0.02952410394924378 0 0.030175835949895168 0.029706473433879138 0 0.029349802048732835 0.029640169970240198 0 0.029900477337253848 0.029324981513745699 0 0.029904672600832398 0.02952410394924378 0 0.029349802048732835 0.029640169970240198 0 0.029900477337253848 0.029324981513745699 0 0.029896518378952682 0.029175340759414782 0 0.025361290138095564 0.029267536132110861 0 0.025945980945320617 0.028431169907636781 0 0.029900477337253848 0.029324981513745699 0 0.030016774821479471 0.029409020670389339 0 0.029893537793173729 0.029174675373180716 0 0.022743914364499358 0.027177259738032707 0 0.022611891994364745 0.026919106835181214 0 0.023570862461593074 0.026364056977592729 0 0.026186494424026686 0.028617276561966894 0 0.025945980945320617 0.028431169907636781 0 0.025361290138095564 0.029267536132110861 0 0.02537537840331756 0.031996727965186031 0 0.030016459091474657 0.029414073131290512 0 0.029904672600832398 0.02952410394924378 0 0.030175835949895168 0.029706473433879138 0 0.029900477337253848 0.029324981513745699 0 0.030016774821479471 0.029409020670389339 0 0.029904672600832398 0.02952410394924378 0 0.025361290138095564 0.029267536132110861 0 0.026122102338071131 0.028883731021277639 0 0.025187848602113792 0.02846195570983958 0 0.025146672463051481 0.024592324773263199 0 0.024263319533885677 0.026658888570931731 0 0.026202874405367314 0.025306779741817803 0 0.026089661908632981 0.025585155002788219 0 0.025824239366687055 0.025034483809457234 0 0.022611891994364745 0.026919106835181214 0 0.022594543961421746 0.025678318924656274 0 0.023570862461593074 0.026364056977592729 0 0.025945980945320617 0.028431169907636781 0 0.022835734057281017 0.023642503342959264 0 0.025945980945320617 0.028431169907636781 0 0.027385308482791679 0.027638490426944818 0 0.022835734057281017 0.023642503342959264 0 0.027385308482791679 0.027638490426944818 0 0.029730445474346664 0.028604568015779458 0 0.029104352417765423 0.028211360461782787 0 0.02912535599972331 0.027386399906823039 0 0.027385308482791679 0.027638490426944818 0 0.026888858038630867 0.024885918373652394 0 0.029162146270789318 0.028921831386028458 0 0.029104352417765423 0.028211360461782787 0 0.028777608111635669 0.028800680919486631 0 0.029162146270789318 0.028921831386028458 0 0.029730445474346664 0.028604568015779458 0 0.029104352417765423 0.028211360461782787 0 0.029104352417765423 0.028211360461782787 0 0.028777608111635669 0.028800680919486631 0 0.028705843307619182 0.028303621306591292 0 0.028777608111635669 0.028800680919486631 0 0.028705843307619182 0.028303621306591292 0 0.028158128329390467 0.028563520898154209 0 0.028705843307619182 0.028303621306591292 0 0.028870834001843194 0.027741761029850476 0 0.028484278468381915 0.027884338018821526 0 0.029104352417765423 0.028211360461782787 0 0.028705843307619182 0.028303621306591292 0 0.028870834001843194 0.027741761029850476 0 0.028639819541835282 0.027258001490847471 0 0.028876221531169033 0.027264527052915807 0 0.028484278468381915 0.027884338018821526 0 0.028876221531169033 0.027264527052915807 0 0.029274205606793349 0.027131947313331347 0 0.028484278468381915 0.027884338018821526 0 0.028870834001843194 0.027741761029850476 0 0.029008205270504094 0.027310857625110849 0 0.028484278468381915 0.027884338018821526 0 0.027161215694389378 0.024499341929202247 0 0.028097154764989779 0.027468218093314321 0 0.027161215694389378 0.024499341929202247 0 0.026977068225261483 0.021341852932992209 0 0.029005852475485681 0.026812061907782916 0 0.029270346013940619 0.027125593211685801 0 0.029061686638766352 0.026459865961540544 0 0.028639819541835282 0.027258001490847471 0 0.028876221531169033 0.027264527052915807 0 0.028860131811972941 0.02700387589801858 0 0.028639819541835282 0.027258001490847471 0 0.028668984250629952 0.026797760356221764 0 0.028860131811972941 0.02700387589801858 0 0.028668984250629952 0.026797760356221764 0 0.028860131811972941 0.02700387589801858 0 0.029005852475485681 0.026812061907782916 0 0.028860131811972941 0.02700387589801858 0 0.029005852475485681 0.026812061907782916 0 0.029121222524742179 0.027019839377341183 0 0.029005852475485681 0.026812061907782916 0 0.029121222524742179 0.027019839377341183 0 0.029270346013940619 0.027125593211685801 0 0.02761129436851717 0.024867900425561366 0 0.027161215694389378 0.024499341929202247 0 0.028876221531169033 0.027264527052915807 0 0.029121222524742179 0.027019839377341183 0 0.029274205606793349 0.027131947313331347 0 0.028876221531169033 0.027264527052915807 0 0.028860131811972941 0.02700387589801858 0 0.029121222524742179 0.027019839377341183 0 0.026864908268107165 0.021774498779748561 0 0.026984928196509238 0.021645701622477309 0 0.026780153780893795 0.021520769550142888 0 0.025114962043136475 0.022047722224184944 0 0.024724470871108125 0.023097772270644926 0 0.022239807160193897 0.021634343119094186 0 0.025114962043136475 0.022047722224184944 0 0.025503502657978121 0.022312531224426509 0 0.024724470871108125 0.023097772270644926 0 0.026888858038630867 0.024885918373652394 0 0.027161215694389378 0.024499341929202247 0 0.027161215694389378 0.024499341929202247 0 0.025535739064652199 0.020320592049344974 0 0.029104352417765423 0.028211360461782787 0 0.028870834001843194 0.027741761029850476 0 0.02912535599972331 0.027386399906823039 0 0.028870834001843194 0.027741761029850476 0 0.02912535599972331 0.027386399906823039 0 0.029008205270504094 0.027310857625110849 0 0.022835734057281017 0.023642503342959264 0 0.026888858038630867 0.024885918373652394 0 0.025114962043136475 0.022047722224184944 0 0.022239807160193897 0.021634343119094186 0 0.022234363980667887 0.020809477396039482 0 0.022229094832518146 0.02009836849139103 0 0.025114962043136475 0.022047722224184944 0 0.022234363980667887 0.020809477396039482 0 0.025535739064652199 0.020320592049344974 0 0.019115691777771997 0.017067912577210322 0 0.019115691777771997 0.017067912577210322 0 0.016330726764956581 0.01287726650257256 0 0.013231459978750519 0.012925835719308706 0 0.01392548498838026 0.012166262437946041 0 0.01385