<?xml version="1.0"?>
<VTKFile type="UnstructuredGrid" version="0.1" byte_order="LittleEndian">
<UnstructuredGrid>
<Piece NumberOfPoints="30618" NumberOfCells="10744">
<Points>
<DataArray type="Float64" NumberOfComponents="3" format="ascii">
-0.49427958746526202 -0.49999999999999512 0 -0.4943900888896422 -0.47349089190363358 0 -0.49427958746526202 -0.49999999999999512 0 -0.5 -0.5 0 -0.4943900888896422 -0.47349089190363358 0 -0.5 -0.5 0 -0.4943900888896422 -0.47349089190363358 0 -0.5 -0.44150235328842258 0 -0.49427958746526202 -0.49999999999999512 0 -0.4943900888896422 -0.47349089190363358 0 -0.48436842240857858 -0.48714093788813112 0 -0.49427958746526202 -0.49999999999999512 0 -0.47650045540741742 -0.5 0 -0.48436842240857858 -0.48714093788813112 0 -0.4943900888896422 -0.47349089190363358 0 -0.47066899942757451 -0.47576530412887819 0 -0.48436842240857858 -0.48714093788813112 0 -0.47066899942757451 -0.47576530412887819 0 -0.47650045540741742 -0.5 0 -0.48436842240857858 -0.48714093788813112 0 -0.47066899942757451 -0.47576530412887819 0 -0.45872132334957288 -0.49999999999999928 0 -0.45242967983978871 -0.4846708604340636 0 -0.47066899942757451 -0.47576530412887819 0 -0.47650045540741742 -0.5 0 -0.45872132334957288 -0.49999999999999928 0 -0.47066899942757451 -0.47576530412887819 0 -0.45872132334957288 -0.49999999999999928 0 -0.47066899942757451 -0.47576530412887819 0 -0.45242967983978871 -0.4846708604340636 0 -0.45249717469141032 -0.46588444847215849 0 -0.43763952177061649 -0.47770500498713542 0 -0.45242967983978871 -0.4846708604340636 0 -0.45249717469141032 -0.46588444847215849 0 -0.43763952177061649 -0.47770500498713542 0 -0.44291044788006362 -0.49999999999999939 0 -0.45242967983978871 -0.4846708604340636 0 -0.43763952177061649 -0.47770500498713542 0 -0.44291044788006362 -0.49999999999999939 0 -0.45872132334957288 -0.49999999999999928 0 -0.44291044788006362 -0.49999999999999939 0 -0.45242967983978871 -0.4846708604340636 0 -0.44838221886832419 -0.4464230337388379 0 -0.4323685956611692 -0.45541000997427139 0 -0.435988539966085 -0.44148905847597392 0 -0.44838221886832419 -0.4464230337388379 0 -0.44213238819953832 -0.43491600865963681 0 -0.435988539966085 -0.44148905847597392 0 -0.44838221886832419 -0.4464230337388379 0 -0.45249717469141032 -0.46588444847215849 0 -0.45755175660874181 -0.45423607616472811 0 -0.44838221886832419 -0.4464230337388379 0 -0.45249717469141032 -0.46588444847215849 0 -0.4323685956611692 -0.45541000997427139 0 -0.43763952177061649 -0.47770500498713542 0 -0.45249717469141032 -0.46588444847215849 0 -0.4323685956611692 -0.45541000997427139 0 -0.47066899942757451 -0.47576530412887819 0 -0.45249717469141032 -0.46588444847215849 0 -0.4675747862741928 -0.45726336772241771 0 -0.45249717469141032 -0.46588444847215849 0 -0.45755175660874181 -0.45423607616472811 0 -0.4675747862741928 -0.45726336772241771 0 -0.44838221886832419 -0.4464230337388379 0 -0.46897642374787268 -0.44262015471777721 0 -0.45660235518767722 -0.42786105997071933 0 -0.44838221886832419 -0.4464230337388379 0 -0.45755175660874181 -0.45423607616472811 0 -0.46897642374787268 -0.44262015471777721 0 -0.45755175660874181 -0.45423607616472811 0 -0.4675747862741928 -0.45726336772241771 0 -0.46897642374787268 -0.44262015471777721 0 -0.4943900888896422 -0.47349089190363358 0 -0.5 -0.44150235328842258 0 -0.49450059031402238 -0.44698178380727199 0 -0.46897642374787268 -0.44262015471777721 0 -0.48473746643246862 -0.43972512984246093 0 -0.48043585850414389 -0.43127077967876992 0 -0.46897642374787268 -0.44262015471777721 0 -0.4826166755055763 -0.45153060825775743 0 -0.48473746643246862 -0.43972512984246093 0 -0.4675747862741928 -0.45726336772241771 0 -0.46897642374787268 -0.44262015471777721 0 -0.4826166755055763 -0.45153060825775743 0 -0.47066899942757451 -0.47576530412887819 0 -0.4826166755055763 -0.45153060825775743 0 -0.4943900888896422 -0.47349089190363358 0 -0.47066899942757451 -0.47576530412887819 0 -0.4826166755055763 -0.45153060825775743 0 -0.47066899942757451 -0.47576530412887819 0 -0.4675747862741928 -0.45726336772241771 0 -0.4826166755055763 -0.45153060825775743 0 -0.4943900888896422 -0.47349089190363358 0 -0.49450059031402238 -0.44698178380727199 0 -0.4943900888896422 -0.47349089190363358 0 -0.4826166755055763 -0.45153060825775743 0 -0.49450059031402238 -0.44698178380727199 0 -0.4826166755055763 -0.45153060825775743 0 -0.48473746643246862 -0.43972512984246093 0 -0.49450059031402238 -0.44698178380727199 0 -0.5 -0.44150235328842258 0 -0.49461109173840262 -0.42047267571091063 0 -0.5 -0.39656953661894012 0 -0.49450059031402238 -0.44698178380727199 0 -0.49461109173840262 -0.42047267571091063 0 -0.48473746643246862 -0.43972512984246093 0 -0.49461109173840262 -0.42047267571091063 0 -0.48043585850414389 -0.43127077967876992 0 -0.5 -0.44150235328842258 0 -0.49450059031402238 -0.44698178380727199 0 -0.49461109173840262 -0.42047267571091063 0 -0.48473746643246862 -0.43972512984246093 0 -0.49450059031402238 -0.44698178380727199 0 -0.49461109173840262 -0.42047267571091063 0 -0.49461109173840262 -0.42047267571091063 0 -0.4947215931627828 -0.39396356761454909 0 -0.49461109173840262 -0.42047267571091063 0 -0.48393842445605872 -0.40713040098299402 0 -0.4947215931627828 -0.39396356761454909 0 -0.49461109173840262 -0.42047267571091063 0 -0.48393842445605872 -0.40713040098299402 0 -0.47214510592166908 -0.41939033492402211 0 -0.48393842445605872 -0.40713040098299402 0 -0.47214510592166908 -0.41939033492402211 0 -0.47427590700138023 -0.39469502568249409 0 -0.46897642374787268 -0.44262015471777721 0 -0.47214510592166908 -0.41939033492402211 0 -0.48043585850414389 -0.43127077967876992 0 -0.49461109173840262 -0.42047267571091063 0 -0.47214510592166908 -0.41939033492402211 0 -0.48043585850414389 -0.43127077967876992 0 -0.5 -0.39656953661894012 0 -0.4947215931627828 -0.39396356761454909 0 -0.48030453056746109 -0.36861144308094029 0 -0.49461109173840262 -0.42047267571091063 0 -0.5 -0.39656953661894012 0 -0.4947215931627828 -0.39396356761454909 0 -0.48393842445605872 -0.40713040098299402 0 -0.4947215931627828 -0.39396356761454909 0 -0.47427590700138023 -0.39469502568249409 0 -0.47427590700138023 -0.39469502568249409 0 -0.48030453056746109 -0.36861144308094029 0 -0.4947215931627828 -0.39396356761454909 0 -0.47427590700138023 -0.39469502568249409 0 -0.48030453056746109 -0.36861144308094029 0 -0.47427590700138023 -0.39469502568249409 0 -0.46334377193483078 -0.37842983215876019 0 -0.48030453056746109 -0.36861144308094029 0 -0.46334377193483078 -0.37842983215876019 0 -0.45726543839001688 -0.40541672899881109 0 -0.44416021803808919 -0.38243724496113263 0 -0.47427590700138023 -0.39469502568249409 0 -0.46334377193483078 -0.37842983215876019 0 -0.45726543839001688 -0.40541672899881109 0 -0.45726543839001688 -0.40541672899881109 0 -0.43814282409564848 -0.40387353522152758 0 -0.44416021803808919 -0.38243724496113263 0 -0.43814282409564848 -0.40387353522152758 0 -0.44416021803808919 -0.38243724496113263 0 -0.4329908326547659 -0.40007252460533121 0 -0.43814282409564848 -0.40387353522152758 0 -0.44416021803808919 -0.38243724496113263 0 -0.46897642374787268 -0.44262015471777721 0 -0.47214510592166908 -0.41939033492402211 0 -0.45660235518767722 -0.42786105997071933 0 -0.47214510592166908 -0.41939033492402211 0 -0.47427590700138023 -0.39469502568249409 0 -0.45726543839001688 -0.40541672899881109 0 -0.47214510592166908 -0.41939033492402211 0 -0.45726543839001688 -0.40541672899881109 0 -0.45660235518767722 -0.42786105997071933 0 -0.45726543839001688 -0.40541672899881109 0 -0.45660235518767722 -0.42786105997071933 0 -0.44309263043645408 -0.41812298423377797 0 -0.45726543839001688 -0.40541672899881109 0 -0.43814282409564848 -0.40387353522152758 0 -0.44309263043645408 -0.41812298423377797 0 -0.43814282409564848 -0.40387353522152758 0 -0.44309263043645408 -0.41812298423377797 0 -0.43209373842114163 -0.42530092927673752 0 -0.44838221886832419 -0.4464230337388379 0 -0.45660235518767722 -0.42786105997071933 0 -0.44213238819953832 -0.43491600865963681 0 -0.45660235518767722 -0.42786105997071933 0 -0.44213238819953832 -0.43491600865963681 0 -0.43132710435572019 -0.42815377149591122 0 -0.45660235518767722 -0.42786105997071933 0 -0.44309263043645408 -0.41812298423377797 0 -0.43132710435572019 -0.42815377149591122 0 -0.45660235518767722 -0.42786105997071933 0 -0.43132710435572019 -0.42815377149591122 0 -0.44213238819953832 -0.43491600865963681 0 -0.42986244815509678 -0.43337144475258638 0 -0.435988539966085 -0.44148905847597392 0 -0.44213238819953832 -0.43491600865963681 0 -0.42986244815509678 -0.43337144475258638 0 -0.43132710435572019 -0.42815377149591122 0 -0.42986244815509678 -0.43337144475258638 0 -0.43132710435572019 -0.42815377149591122 0 -0.42986244815509678 -0.43337144475258638 0 -0.42494843276815808 -0.42822764260015772 0 -0.42026026496879931 -0.43681168621285732 0 -0.42986244815509678 -0.43337144475258638 0 -0.42494843276815808 -0.42822764260015772 0 -0.43132710435572019 -0.42815377149591122 0 -0.42494843276815808 -0.42822764260015772 0 -0.43209373842114163 -0.42530092927673752 0 -0.42214799869492048 -0.41876725226122891 0 -0.42494843276815808 -0.42822764260015772 0 -0.43209373842114163 -0.42530092927673752 0 -0.42494843276815808 -0.42822764260015772 0 -0.43209373842114163 -0.42530092927673752 0 -0.43132710435572019 -0.42815377149591122 0 -0.42494843276815808 -0.42822764260015772 0 -0.43132710435572019 -0.42815377149591122 0 -0.44309263043645408 -0.41812298423377797 0 -0.43209373842114163 -0.42530092927673752 0 -0.43132710435572019 -0.42815377149591122 0 -0.43209373842114163 -0.42530092927673752 0 -0.43132710435572019 -0.42815377149591122 0 -0.43814282409564848 -0.40387353522152758 0 -0.43209373842114163 -0.42530092927673752 0 -0.43814282409564848 -0.40387353522152758 0 -0.43209373842114163 -0.42530092927673752 0 -0.42736227186559528 -0.41250939947999687 0 -0.43814282409564848 -0.40387353522152758 0 -0.42736227186559528 -0.41250939947999687 0 -0.42798743510346321 -0.40461924019690898 0
[...]
<PointData Scalars="" Vectors="displacement," Tensors="">
<DataArray type="Float64" Name="displacement" NumberOfComponents="3" format="ascii">
1.3693773752106894e-07 0.034999449348298815 0 9.593768807718735e-05 0.033511886445314006 0 3.5502607577658668e-10 0.034999458292425879 0 -2.9203886415215152e-10 0.034999912959561418 0 2.2434601318621552e-07 0.03314792604262868 0 -2.9203886415215152e-10 0.034999912959561418 0 2.2434601318621552e-07 0.03314792604262868 0 1.0182092481976735e-08 0.030904882473546381 0 9.5156741661994626e-08 0.034999506132020325 0 0.00011301652193291691 0.03389818911811357 0 7.1875591678619252e-05 0.03453238522884803 0 9.5156741661994626e-08 0.034999506132020325 0 1.1046497965289777e-07 0.034999212667123629 0 7.1875591678619252e-05 0.03453238522884803 0 0.00011301652193291691 0.03389818911811357 0 8.785501330775467e-05 0.034307022086685506 0 7.1875591678619252e-05 0.03453238522884803 0 8.785501330775467e-05 0.034307022086685506 0 1.1046497965289777e-07 0.034999212667123629 0 7.1875591678619252e-05 0.03453238522884803 0 0.00045839508787734234 0.033599627583060732 0 6.4850899009911537e-07 0.034999127324667118 0 0.00030621281371060052 0.034348619360223279 0 8.785501330775467e-05 0.034307022086685506 0 1.1046497965289777e-07 0.034999212667123629 0 -3.8281501339935565e-08 0.035000075595578384 0 0.00026168575983165322 0.033917075694982465 0 -9.3456704944012915e-09 0.03499957435021487 0 0.00045839508787734234 0.033599627583060732 0 0.00030621281371060052 0.034348619360223279 0 0.00044546317339293955 0.03368382571526287 0 0.00045163924146766698 0.034088773380743564 0 0.00030621281371060052 0.034348619360223279 0 0.00044546317339293955 0.03368382571526287 0 0.00045163924146766698 0.034088773380743564 0 1.1078578893580022e-08 0.034998777933773026 0 0.00030621281371060052 0.034348619360223279 0 0.00030420694705004235 0.034443284917612969 0 1.8602298441652781e-07 0.034999729472861674 0 6.4850899009911537e-07 0.034999127324667118 0 1.1078578893580022e-08 0.034998777933773026 0 0.00030621281371060052 0.034348619360223279 0 0.00025396630844979809 0.033277487091269937 0 0.00029580211624965314 0.034138936751348645 0 7.0096816074293768e-05 0.033769031739222521 0 0.00025396630844979809 0.033277487091269937 0 -3.0806752412994339e-05 0.033316396611620801 0 7.0096816074293768e-05 0.033769031739222521 0 0.00025396630844979809 0.033277487091269937 0 0.00044546317339293955 0.03368382571526287 0 0.00035490043499216171 0.033198752438108096 0 0.00025396630844979809 0.033277487091269937 0 0.00044546317339293955 0.03368382571526287 0 0.00029580211624965314 0.034138936751348645 0 0.00045163924146766698 0.034088773380743564 0 0.00044546317339293955 0.03368382571526287 0 0.00029580211624965314 0.034138936751348645 0 0.00045839508787734234 0.033599627583060732 0 0.00044546317339293955 0.03368382571526287 0 0.00035686760790564685 0.033055531484135592 0 0.00044546317339293955 0.03368382571526287 0 0.00035490043499216171 0.033198752438108096 0 0.00035686760790564685 0.033055531484135592 0 0.00025396630844979809 0.033277487091269937 0 0.00031525289327335093 0.032401744343483967 0 8.2735654337044075e-05 0.03214386798599659 0 0.00025396630844979809 0.033277487091269937 0 0.00035490043499216171 0.033198752438108096 0 0.00031525289327335093 0.032401744343483967 0 0.00035490043499216171 0.033198752438108096 0 0.00035686760790564685 0.033055531484135592 0 0.00031525289327335093 0.032401744343483967 0 2.2434601318621552e-07 0.03314792604262868 0 1.0182092481976735e-08 0.030904882473546381 0 -9.5564125962124791e-07 0.031291416005174523 0 0.00031525289327335093 0.032401744343483967 0 0.00037003213077302805 0.032082491875878257 0 0.00037092804803290477 0.031652433915695125 0 0.00031525289327335093 0.032401744343483967 0 0.00029522952444370178 0.032735414947057326 0 0.00037003213077302805 0.032082491875878257 0 0.00035686760790564685 0.033055531484135592 0 0.00031525289327335093 0.032401744343483967 0 0.00029522952444370178 0.032735414947057326 0 0.00026168575983165322 0.033917075694982465 0 0.00028925099222393372 0.032949386364020256 0 0.00011301652193291691 0.03389818911811357 0 8.785501330775467e-05 0.034307022086685506 0 0.00029522952444370178 0.032735414947057326 0 0.00045839508787734234 0.033599627583060732 0 0.00035686760790564685 0.033055531484135592 0 0.00029522952444370178 0.032735414947057326 0 9.593768807718735e-05 0.033511886445314006 0 0.00018423510657494279 0.031892446018521037 0 0.00011301652193291691 0.03389818911811357 0 0.00029522952444370178 0.032735414947057326 0 0.00033958818279537865 0.032515174604402848 0 0.00029522952444370178 0.032735414947057326 0 0.00037003213077302805 0.032082491875878257 0 0.00033958818279537865 0.032515174604402848 0 1.0182092481976735e-08 0.030904882473546381 0 2.0049957360493389e-05 0.029436291505605752 0 2.5809243985017031e-07 0.027761201579506685 0 0.00018423510657494279 0.031892446018521037 0 0.00017935070494650825 0.02998728089351696 0 0.00037003213077302805 0.032082491875878257 0 0.00041868849146779378 0.030672260672347327 0 0.00037092804803290477 0.031652433915695125 0 1.0182092481976735e-08 0.030904882473546381 0 -9.5564125962124791e-07 0.031291416005174523 0 2.0049957360493389e-05 0.029436291505605752 0 0.00037003213077302805 0.032082491875878257 0 0.00033958818279537865 0.032515174604402848 0 0.00041868849146779378 0.030672260672347327 0 0.00017935070494650825 0.02998728089351696 0 -7.5666615559944261e-05 0.028333811190867496 0 0.00041868849146779378 0.030672260672347327 0 0.00021942545982890022 0.029903649721246438 0 -2.0880711097174708e-05 0.027947921341030794 0 0.00041868849146779378 0.030672260672347327 0 0.00021942545982890022 0.029903649721246438 0 0.00030008549302427067 0.031205226664754268 0 0.00021942545982890022 0.029903649721246438 0 0.00030008549302427067 0.031205226664754268 0 -0.00020475990397828014 0.029763439080255 0 0.00031525289327335093 0.032401744343483967 0 0.00030008549302427067 0.031205226664754268 0 0.00037092804803290477 0.031652433915695125 0 0.00041868849146779378 0.030672260672347327 0 0.00030008549302427067 0.031205226664754268 0 0.00037092804803290477 0.031652433915695125 0 2.5809243985017031e-07 0.027761201579506685 0 -2.0880711097174708e-05 0.027947921341030794 0 -0.00022723504309436651 0.026937794590190387 0 2.0049957360493389e-05 0.029436291505605752 0 2.5809243985017031e-07 0.027761201579506685 0 -2.0880711097174708e-05 0.027947921341030794 0 0.00021942545982890022 0.029903649721246438 0 -2.0880711097174708e-05 0.027947921341030794 0 -0.00020475990397828014 0.029763439080255 0 -9.4220443632119297e-05 0.029456594711801665 0 -0.001001161967845331 0.028537033913579354 0 -2.0880711097174708e-05 0.027947921341030794 0 -0.00020475990397828014 0.029763439080255 0 -0.00022723504309436651 0.026937794590190387 0 -0.00020475990397828014 0.029763439080255 0 -0.0013357908092577833 0.030571183114527022 0 -0.0019911479064333134 0.029351108403873727 0 -0.0013357908092577833 0.030571183114527022 0 7.3983680074378769e-05 0.031320902037254184 0 -0.0010754469846910302 0.031753463347565646 0 -0.00020475990397828014 0.029763439080255 0 -0.0013357908092577833 0.030571183114527022 0 7.3983680074378769e-05 0.031320902037254184 0 7.3983680074378769e-05 0.031320902037254184 0 -5.3734179326066777e-05 0.031997227168312582 0 -0.0010754469846910302 0.031753463347565646 0 9.5983207416056396e-05 0.027179579266926417 0 -0.00049367408627216242 0.026982392012290482 0 -2.1414411146793496e-05 0.027330799323168554 0 8.2323017402122526e-05 0.029444148644144144 0 -0.00081308705286962208 0.029753310278089102 0 0.00031525289327335093 0.032401744343483967 0 0.00030008549302427067 0.031205226664754268 0 8.2735654337044075e-05 0.03214386798599659 0 0.00030008549302427067 0.031205226664754268 0 -0.00020475990397828014 0.029763439080255 0 7.3983680074378769e-05 0.031320902037254184 0 0.00030008549302427067 0.031205226664754268 0 7.3983680074378769e-05 0.031320902037254184 0 8.2735654337044075e-05 0.03214386798599659 0 7.3983680074378769e-05 0.031320902037254184 0 8.2735654337044075e-05 0.03214386798599659 0 0.00015672365680991093 0.031893997672382067 0 7.3983680074378769e-05 0.031320902037254184 0 -5.3734179326066777e-05 0.031997227168312582 0 0.00015672365680991093 0.031893997672382067 0 -5.3734179326066777e-05 0.031997227168312582 0 0.00015672365680991093 0.031893997672382067 0 0.00015320716328987946 0.031861887788293443 0 0.00025396630844979809 0.033277487091269937 0 8.2735654337044075e-05 0.03214386798599659 0 -3.0806752412994339e-05 0.033316396611620801 0 8.2735654337044075e-05 0.03214386798599659 0 -3.0806752412994339e-05 0.033316396611620801 0 -0.00061867515560298846 0.034026142246305451 0 8.2735654337044075e-05 0.03214386798599659 0 0.00015672365680991093 0.031893997672382067 0 0.00013666280540054981 0.031847114890841924 0 -1.0363660454733179e-05 0.032520315532639725 0 -8.9692012460985715e-05 0.032270509288863429 0 -3.0806752412994339e-05 0.033316396611620801 0 -0.0002660739882929095 0.034089312657001478 0 7.0096816074293768e-05 0.033769031739222521 0 -3.0806752412994339e-05 0.033316396611620801 0 -0.0002660739882929095 0.034089312657001478 0 -0.00061867515560298846 0.034026142246305451 0 -6.4643103504506274e-05 0.032737767329057622 0 -8.9692012460985715e-05 0.032270509288863429 0 -0.0002660739882929095 0.034089312657001478 0 -0.00040045003987006472 0.034242594361501691 0 -0.00016852550142524642 0.034372557347167904 0 -0.0002660739882929095 0.034089312657001478 0 -0.00040045003987006472 0.034242594361501691 0 -0.00041265033184912633 0.034045557062226076 0 0.00095106393154927114 0.027657076872850805 0 0.00084754426622445664 0.027407316598694952 0 0.00062436038813111863 0.02774111037698556 0 -5.2425413582287673e-05 0.031578382183980916 0 -0.00020948461001190643 0.031058453774462254 0 0.00010381792635240011 0.031609242606517741 0 0.00010704144167873282 0.031621510705790001 0 0.00010265306032251317 0.031620660511213761 0 -5.2425413582287673e-05 0.031578382183980916 0 -8.9692012460985715e-05 0.032270509288863429 0 0.00015672365680991093 0.031893997672382067 0 0.00015320716328987946 0.031861887788293443 0 0.00013666280540054981 0.031847114890841924 0 -0.00020948461001190643 0.031058453774462254 0 -8.9692012460985715e-05 0.032270509288863429 0 8.2323017402122526e-05 0.029444148644144144 0 -0.00020948461001190643 0.031058453774462254 0 9.5983207416056396e-05 0.027179579266926417 0 0.00084754426622445664 0.027407316598694952 0 0.00040357268829906015 0.027551031684622095 0 9.5983207416056396e-05 0.027179579266926417 0 0.00040357268829906015 0.027551031684622095 0 0.00013281708184527228 0.027513521528464282 0 0.00040357268829906015 0.027551031684622095 0 0.00062436038813111863 0.02774111037698556 0 0.00032117940958399389 0.027926272535552916 0 0.00040357268829906015 0.027551031684622095 0 0.00032117940958399389 0.027926272535552916 0 0.00013281708184527228 0.027513521528464282 0 0.00084754426622445664 0.027407316598694952 0 0.00040357268829906015 0.027551031684622095 0 0.00062436038813111863 0.02774111037698556 0 0.00032117940958399389 0.027926272535552916 0 0.00066043481994867959 0.028053783526557231 0 0.00041945839138003986 0.028492752903829546 0 0.00032117940958399389 0.027926272535552916 0 3.8553882421368426e-05 0.028347910724828836 0 0.00041945839138003986 0.028492752903829546 0 0.00062436038813111863 0.02774111037698556 0 0.00032117940958399389 0.027926272535552916 0 0.00066043481994867959 0.028053783526557231 0 -0.00040045003987006472 0.034242594361501691 0 -0.00016852550142524642 0.034372557347167904 0 -0.00012790431644634011 0.034741642697862091 0 -5.2425413582287673e-05 0.031578382183980916 0 -0.00010667843471616676 0.034472623093684075 0 -0.00050323628581385501 0.032627633432881387 0 -0.00014819065163155124 0.033559538728815938 0 -0.00048345149711498777 0.033634661018206592 0 -5.2425413582287673e-05 0.031578382183980916 0 0.00027389587075431313 0.030718266673747281 0 0.00095106393154927114 0.027657076872850805 0 0.00066043481994867959 0.028053783526557231 0 0.00097792623150140794 0.028463777192079959 0 0.00095106393154927114 0.027657076872850805 0 0.00062436038813111863 0.02774111037698556 0 0.00066043481994867959 0.028053783526557231 0 -0.00057436864261634004 0.028305082396192126 0 1.4927185172005802e-05 0.02461243027361373 0 -2.1414411146793496e-05 0.027330799323168554 0 -0.00032671480079556791 0.027836060057103047 0 -0.00077612281419871352 0.027781097552993617 0 -0.00050085908899503615 0.027288218140563602 0 -2.1414411146793496e-05 0.027330799323168554 0 -0.00063511827619772761 0.027615691781291567 0 -0.00049367408627216242 0.026982392012290482 0 -0.00050085908899503615 0.027288218140563602 0 -2.1414411146793496e-05 0.027330799323168554 0 -0.00050085908899503615 0.027288218140563602 0 -0.00063511827619772761 0.027615691781291567 0 -0.0008505827412390684 0.027218003318887705 0 -0.00049367408627216242 0.026982392012290482 0 -0.00050085908899503615 0.027288218140563602 0 -0.0008505827412390684 0.027218003318887705 0 -2.1414411146793496e-05 0.027330799323168554 0 1.7871437377743929e-05 0.027726184392720541 0 -0.00032671480079556791 0.027836060057103047 0 9.5983207416056396e-05 0.027179579266926417 0 -2.1414411146793496e-05 0.027330799323168554 0 0.00013281708184527228 0.027513521528464282 0 -2.1414411146793496e-05 0.027330799323168554 0 0.00013281708184527228 0.027513521528464282 0 1.7871437377743929e-05 0.027726184392720541 0 0.00032117940958399389 0.027926272535552916 0 0.00013281708184527228 0.027513521528464282 0 1.7871437377743929e-05 0.027726184392720541 0 -0.0001970656894090997 0.028272113918278736 0 -0.00032671480079556791 0.027836060057103047 0 -0.00053450833433685535 0.028453545739257426 0 0.00032117940958399389 0.027926272535552916 0 1.7871437377743929e-05 0.027726184392720541 0 -2.875903021422712e-05 0.02802080643356571 0 0.00032117940958399389 0.027926272535552916 0 -2.875903021422712e-05 0.02802080643356571 0 3.8553882421368426e-05 0.028347910724828836 0 -2.875903021422712e-05 0.02802080643356571 0 -0.0001970656894090997 0.028272113918278736 0 3.8553882421368426e-05 0.028347910724828836 0 -2.875903021422712e-05 0.02802080643356571 0 -0.0001970656894090997 0.028272113918278736 0 -0.00032671480079556791 0.027836060057103047 0 1.7871437377743929e-05 0.027726184392720541 0 -2.875903021422712e-05 0.02802080643356571 0 -0.00032671480079556791 0.027836060057103047 0 -0.000453864726224586 0.02821816816029573 0 -0.00014825037647048971 0.027411041737897556 0 -0.00032671480079556791 0.027836060057103047 0 -0.00061884468038340675 0.028042501970775454 0 -0.00049242589184687478 0.028283073336840818 0 -0.00032671480079556791 0.027836060057103047 0 -0.00062623503720004811 0.027877932247846463 0 -0.00077612281419871352 0.027781097552993617 0 -0.00032671480079556791 0.027836060057103047 0 -0.00062208416541066776 0.027970605773309204 0 -0.00062623503720004811 0.027877932247846463 0 -0.00032671480079556791 0.027836060057103047 0 -0.00062208416541066776 0.027970605773309204 0 -0.00061884468038340675 0.028042501970775454 0 -2.5798029983202704e-05 0.025573740430499245 0 1.8249314355611445e-05 0.026418154449420129 0 -0.00062208416541066776 0.027970605773309204 0 -0.00067594314279189173 0.027931288425232535 0 -0.00061867461475002502 0.028033091218707788 0 0.00044654585185807867 0.025087741269949167 0 0.00034752687832198 0.024892547009711011 0 0.0010971070912743465 0.024465046492722756 0 -1.8950266403395586e-05 0.026758167318949824 0 1.8249314355611445e-05 0.026418154449420129 0 -2.5798029983202704e-05 0.025573740430499245 0 1.4927185172005802e-05 0.02461243027361373 0 -0.00068910951245806159 0.027933967285180515 0 -0.00062623503720004811 0.027877932247846463 0 -0.00077612281419871352 0.027781097552993617 0 -0.00062208416541066776 0.027970605773309204 0 -0.00067594314279189173 0.027931288425232535 0 -0.00062623503720004811 0.027877932247846463 0 -2.5798029983202704e-05 0.025573740430499245 0 -0.0003433222302748978 0.026002030449962927 0 0.00031245929869269255 0.026844482547103515 0 0.00031238970588791853 0.02520504828359944 0 -7.2386624215073993e-05 0.026081637216498706 0 8.7535494403693896e-05 0.026445858995273866 0 0.00016567611824676692 0.026265012429374703 0 0.00035983523227750683 0.026634063792932879 0 0.00034752687832198 0.024892547009711011 0 0.00034568131725657499 0.023959197151353032 0 0.0010971070912743465 0.024465046492722756 0 1.8249314355611445e-05 0.026418154449420129 0 0.00060032492450738054 0.024512449323870523 0 1.8249314355611445e-05 0.026418154449420129 0 -0.00014825037647048971 0.027411041737897556 0 0.00060032492450738054 0.024512449323870523 0 -0.00014825037647048971 0.027411041737897556 0 -0.00053450833433685535 0.028453545739257426 0 -0.00015686357013320067 0.028685303103062203 0 -0.00016685457879326437 0.029156638135506716 0 -0.00014825037647048971 0.027411041737897556 0 0.00041947010492489822 0.027199768996686396 0 -0.0001970656894090997 0.028272113918278736 0 -0.00015686357013320067 0.028685303103062203 0 3.8553882421368426e-05 0.028347910724828836 0 -0.0001970656894090997 0.028272113918278736 0 -0.00053450833433685535 0.028453545739257426 0 -0.00015686357013320067 0.028685303103062203 0 -0.00015686357013320067 0.028685303103062203 0 3.8553882421368426e-05 0.028347910724828836 0 8.5858409138493311e-05 0.028636790271299062 0 3.8553882421368426e-05 0.028347910724828836 0 8.5858409138493311e-05 0.028636790271299062 0 0.00041945839138003986 0.028492752903829546 0 8.5858409138493311e-05 0.028636790271299062 0 -1.3434652177166594e-05 0.028957945038561732 0 0.00022632222268833288 0.028884038825591579 0 -0.00015686357013320067 0.028685303103062203 0 8.5858409138493311e-05 0.028636790271299062 0 -1.3434652177166594e-05 0.028957945038561732 0 0.00018464423439582385 0.029162775852730749 0 9.4222474932450281e-05 0.029149861825598197 0 0.00022632222268833288 0.028884038825591579 0 9.4222474932450281e-05 0.029149861825598197 0 -5.222789702225821e-05 0.029201659730824805 0 0.00022632222268833288 0.028884038825591579 0 -1.3434652177166594e-05 0.028957945038561732 0 -0.00010022105099848807 0.029199440684532452 0 0.00022632222268833288 0.028884038825591579 0 0.00030492755737688914 0.027431219481535263 0 -0.00020393640955044203 0.029089730590567596 0 0.00030492755737688914 0.027431219481535263 0 0.00083595223080064004 0.026993474307832152 0 5.5749478611469065e-05 0.029305377995201359 0 -4.6802636838380868e-05 0.029198675131534915 0 4.4793855916612213e-05 0.029418794660405492 0 0.00018464423439582385 0.029162775852730749 0 9.4222474932450281e-05 0.029149861825598197 0 0.00010531822361717389 0.029244117454271988 0 0.00018464423439582385 0.029162775852730749 0 0.00017642184834674161 0.029316315847297669 0 0.00010531822361717389 0.029244117454271988 0 0.00017642184834674161 0.029316315847297669 0 0.00010531822361717389 0.029244117454271988 0 5.5749478611469065e-05 0.029305377995201359 0 0.00010531822361717389 0.029244117454271988 0 5.5749478611469065e-05 0.029305377995201359 0 8.344213421711439e-06 0.029235976234421635 0 5.5749478611469065e-05 0.029305377995201359 0 8.344213421711439e-06 0.029235976234421635 0 -4.6802636838380868e-05 0.029198675131534915 0 0.00037209014526164369 0.027580652553860576 0 0.00030492755737688914 0.027431219481535263 0 9.4222474932450281e-05 0.029149861825598197 0 8.344213421711439e-06 0.029235976234421635 0 -5.222789702225821e-05 0.029201659730824805 0 9.4222474932450281e-05 0.029149861825598197 0 0.00010531822361717389 0.029244117454271988 0 8.344213421711439e-06 0.029235976234421635 0 0.0006919710107351286 0.026279723882397233 0 0.00052640413928344097 0.026447903179308084 0 0.00081385384639233427 0.026620352215847718 0 0.0012895891051709844 0.025107700263373205 0 0.0011491673382882999 0.0254893888873505 0 0.00025439002906418412 0.024946321668664676 0 0.0012895891051709844 0.025107700263373205 0 0.0014292053035883682 0.025205456099748755 0 0.0011491673382882999 0.0254893888873505 0 0.00041947010492489822 0.027199768996686396 0 0.00030492755737688914 0.02743121948153526