<?xml version="1.0"?>
<VTKFile type="UnstructuredGrid" version="0.1" byte_order="LittleEndian">
<UnstructuredGrid>
<Piece NumberOfPoints="30618" NumberOfCells="10744">
<Points>
<DataArray type="Float64" NumberOfComponents="3" format="ascii">
-0.49427958746526202 -0.49999999999999512 0 -0.4943900888896422 -0.47349089190363358 0 -0.49427958746526202 -0.49999999999999512 0 -0.5 -0.5 0 -0.4943900888896422 -0.47349089190363358 0 -0.5 -0.5 0 -0.4943900888896422 -0.47349089190363358 0 -0.5 -0.44150235328842258 0 -0.49427958746526202 -0.49999999999999512 0 -0.4943900888896422 -0.47349089190363358 0 -0.48436842240857858 -0.48714093788813112 0 -0.49427958746526202 -0.49999999999999512 0 -0.47650045540741742 -0.5 0 -0.48436842240857858 -0.48714093788813112 0 -0.4943900888896422 -0.47349089190363358 0 -0.47066899942757451 -0.47576530412887819 0 -0.48436842240857858 -0.48714093788813112 0 -0.47066899942757451 -0.47576530412887819 0 -0.47650045540741742 -0.5 0 -0.48436842240857858 -0.48714093788813112 0 -0.47066899942757451 -0.47576530412887819 0 -0.45872132334957288 -0.49999999999999928 0 -0.45242967983978871 -0.4846708604340636 0 -0.47066899942757451 -0.47576530412887819 0 -0.47650045540741742 -0.5 0 -0.45872132334957288 -0.49999999999999928 0 -0.47066899942757451 -0.47576530412887819 0 -0.45872132334957288 -0.49999999999999928 0 -0.47066899942757451 -0.47576530412887819 0 -0.45242967983978871 -0.4846708604340636 0 -0.45249717469141032 -0.46588444847215849 0 -0.43763952177061649 -0.47770500498713542 0 -0.45242967983978871 -0.4846708604340636 0 -0.45249717469141032 -0.46588444847215849 0 -0.43763952177061649 -0.47770500498713542 0 -0.44291044788006362 -0.49999999999999939 0 -0.45242967983978871 -0.4846708604340636 0 -0.43763952177061649 -0.47770500498713542 0 -0.44291044788006362 -0.49999999999999939 0 -0.45872132334957288 -0.49999999999999928 0 -0.44291044788006362 -0.49999999999999939 0 -0.45242967983978871 -0.4846708604340636 0 -0.44838221886832419 -0.4464230337388379 0 -0.4323685956611692 -0.45541000997427139 0 -0.435988539966085 -0.44148905847597392 0 -0.44838221886832419 -0.4464230337388379 0 -0.44213238819953832 -0.43491600865963681 0 -0.435988539966085 -0.44148905847597392 0 -0.44838221886832419 -0.4464230337388379 0 -0.45249717469141032 -0.46588444847215849 0 -0.45755175660874181 -0.45423607616472811 0 -0.44838221886832419 -0.4464230337388379 0 -0.45249717469141032 -0.46588444847215849 0 -0.4323685956611692 -0.45541000997427139 0 -0.43763952177061649 -0.47770500498713542 0 -0.45249717469141032 -0.46588444847215849 0 -0.4323685956611692 -0.45541000997427139 0 -0.47066899942757451 -0.47576530412887819 0 -0.45249717469141032 -0.46588444847215849 0 -0.4675747862741928 -0.45726336772241771 0 -0.45249717469141032 -0.46588444847215849 0 -0.45755175660874181 -0.45423607616472811 0 -0.4675747862741928 -0.45726336772241771 0 -0.44838221886832419 -0.4464230337388379 0 -0.46897642374787268 -0.44262015471777721 0 -0.45660235518767722 -0.42786105997071933 0 -0.44838221886832419 -0.4464230337388379 0 -0.45755175660874181 -0.45423607616472811 0 -0.46897642374787268 -0.44262015471777721 0 -0.45755175660874181 -0.45423607616472811 0 -0.4675747862741928 -0.45726336772241771 0 -0.46897642374787268 -0.44262015471777721 0 -0.4943900888896422 -0.47349089190363358 0 -0.5 -0.44150235328842258 0 -0.49450059031402238 -0.44698178380727199 0 -0.46897642374787268 -0.44262015471777721 0 -0.48473746643246862 -0.43972512984246093 0 -0.48043585850414389 -0.43127077967876992 0 -0.46897642374787268 -0.44262015471777721 0 -0.4826166755055763 -0.45153060825775743 0 -0.48473746643246862 -0.43972512984246093 0 -0.4675747862741928 -0.45726336772241771 0 -0.46897642374787268 -0.44262015471777721 0 -0.4826166755055763 -0.45153060825775743 0 -0.47066899942757451 -0.47576530412887819 0 -0.4826166755055763 -0.45153060825775743 0 -0.4943900888896422 -0.47349089190363358 0 -0.47066899942757451 -0.47576530412887819 0 -0.4826166755055763 -0.45153060825775743 0 -0.47066899942757451 -0.47576530412887819 0 -0.4675747862741928 -0.45726336772241771 0 -0.4826166755055763 -0.45153060825775743 0 -0.4943900888896422 -0.47349089190363358 0 -0.49450059031402238 -0.44698178380727199 0 -0.4943900888896422 -0.47349089190363358 0 -0.4826166755055763 -0.45153060825775743 0 -0.49450059031402238 -0.44698178380727199 0 -0.4826166755055763 -0.45153060825775743 0 -0.48473746643246862 -0.43972512984246093 0 -0.49450059031402238 -0.44698178380727199 0 -0.5 -0.44150235328842258 0 -0.49461109173840262 -0.42047267571091063 0 -0.5 -0.39656953661894012 0 -0.49450059031402238 -0.44698178380727199 0 -0.49461109173840262 -0.42047267571091063 0 -0.48473746643246862 -0.43972512984246093 0 -0.49461109173840262 -0.42047267571091063 0 -0.48043585850414389 -0.43127077967876992 0 -0.5 -0.44150235328842258 0 -0.49450059031402238 -0.44698178380727199 0 -0.49461109173840262 -0.42047267571091063 0 -0.48473746643246862 -0.43972512984246093 0 -0.49450059031402238 -0.44698178380727199 0 -0.49461109173840262 -0.42047267571091063 0 -0.49461109173840262 -0.42047267571091063 0 -0.4947215931627828 -0.39396356761454909 0 -0.49461109173840262 -0.42047267571091063 0 -0.48393842445605872 -0.40713040098299402 0 -0.4947215931627828 -0.39396356761454909 0 -0.49461109173840262 -0.42047267571091063 0 -0.48393842445605872 -0.40713040098299402 0 -0.47214510592166908 -0.41939033492402211 0 -0.48393842445605872 -0.40713040098299402 0 -0.47214510592166908 -0.41939033492402211 0 -0.47427590700138023 -0.39469502568249409 0 -0.46897642374787268 -0.44262015471777721 0 -0.47214510592166908 -0.41939033492402211 0 -0.48043585850414389 -0.43127077967876992 0 -0.49461109173840262 -0.42047267571091063 0 -0.47214510592166908 -0.41939033492402211 0 -0.48043585850414389 -0.43127077967876992 0 -0.5 -0.39656953661894012 0 -0.4947215931627828 -0.39396356761454909 0 -0.48030453056746109 -0.36861144308094029 0 -0.49461109173840262 -0.42047267571091063 0 -0.5 -0.39656953661894012 0 -0.4947215931627828 -0.39396356761454909 0 -0.48393842445605872 -0.40713040098299402 0 -0.4947215931627828 -0.39396356761454909 0 -0.47427590700138023 -0.39469502568249409 0 -0.47427590700138023 -0.39469502568249409 0 -0.48030453056746109 -0.36861144308094029 0 -0.4947215931627828 -0.39396356761454909 0 -0.47427590700138023 -0.39469502568249409 0 -0.48030453056746109 -0.36861144308094029 0 -0.47427590700138023 -0.39469502568249409 0 -0.46334377193483078 -0.37842983215876019 0 -0.48030453056746109 -0.36861144308094029 0 -0.46334377193483078 -0.37842983215876019 0 -0.45726543839001688 -0.40541672899881109 0 -0.44416021803808919 -0.38243724496113263 0 -0.47427590700138023 -0.39469502568249409 0 -0.46334377193483078 -0.37842983215876019 0 -0.45726543839001688 -0.40541672899881109 0 -0.45726543839001688 -0.40541672899881109 0 -0.43814282409564848 -0.40387353522152758 0 -0.44416021803808919 -0.38243724496113263 0 -0.43814282409564848 -0.40387353522152758 0 -0.44416021803808919 -0.38243724496113263 0 -0.4329908326547659 -0.40007252460533121 0 -0.43814282409564848 -0.40387353522152758 0 -0.44416021803808919 -0.38243724496113263 0 -0.46897642374787268 -0.44262015471777721 0 -0.47214510592166908 -0.41939033492402211 0 -0.45660235518767722 -0.42786105997071933 0 -0.47214510592166908 -0.41939033492402211 0 -0.47427590700138023 -0.39469502568249409 0 -0.45726543839001688 -0.40541672899881109 0 -0.47214510592166908 -0.41939033492402211 0 -0.45726543839001688 -0.40541672899881109 0 -0.45660235518767722 -0.42786105997071933 0 -0.45726543839001688 -0.40541672899881109 0 -0.45660235518767722 -0.42786105997071933 0 -0.44309263043645408 -0.41812298423377797 0 -0.45726543839001688 -0.40541672899881109 0 -0.43814282409564848 -0.40387353522152758 0 -0.44309263043645408 -0.41812298423377797 0 -0.43814282409564848 -0.40387353522152758 0 -0.44309263043645408 -0.41812298423377797 0 -0.43209373842114163 -0.42530092927673752 0 -0.44838221886832419 -0.4464230337388379 0 -0.45660235518767722 -0.42786105997071933 0 -0.44213238819953832 -0.43491600865963681 0 -0.45660235518767722 -0.42786105997071933 0 -0.44213238819953832 -0.43491600865963681 0 -0.43132710435572019 -0.42815377149591122 0 -0.45660235518767722 -0.42786105997071933 0 -0.44309263043645408 -0.41812298423377797 0 -0.43132710435572019 -0.42815377149591122 0 -0.45660235518767722 -0.42786105997071933 0 -0.43132710435572019 -0.42815377149591122 0 -0.44213238819953832 -0.43491600865963681 0 -0.42986244815509678 -0.43337144475258638 0 -0.435988539966085 -0.44148905847597392 0 -0.44213238819953832 -0.43491600865963681 0 -0.42986244815509678 -0.43337144475258638 0 -0.43132710435572019 -0.42815377149591122 0 -0.42986244815509678 -0.43337144475258638 0 -0.43132710435572019 -0.42815377149591122 0 -0.42986244815509678 -0.43337144475258638 0 -0.42494843276815808 -0.42822764260015772 0 -0.42026026496879931 -0.43681168621285732 0 -0.42986244815509678 -0.43337144475258638 0 -0.42494843276815808 -0.42822764260015772 0 -0.43132710435572019 -0.42815377149591122 0 -0.42494843276815808 -0.42822764260015772 0 -0.43209373842114163 -0.42530092927673752 0 -0.42214799869492048 -0.41876725226122891 0 -0.42494843276815808 -0.42822764260015772 0 -0.43209373842114163 -0.42530092927673752 0 -0.42494843276815808 -0.42822764260015772 0 -0.43209373842114163 -0.42530092927673752 0 -0.43132710435572019 -0.42815377149591122 0 -0.42494843276815808 -0.42822764260015772 0 -0.43132710435572019 -0.42815377149591122 0 -0.44309263043645408 -0.41812298423377797 0 -0.43209373842114163 -0.42530092927673752 0 -0.43132710435572019 -0.42815377149591122 0 -0.43209373842114163 -0.42530092927673752 0 -0.43132710435572019 -0.42815377149591122 0 -0.43814282409564848 -0.40387353522152758 0 -0.43209373842114163 -0.42530092927673752 0 -0.43814282409564848 -0.40387353522152758 0 -0.43209373842114163 -0.42530092927673752 0 -0.42736227186559528 -0.41250939947999687 0 -0.43814282409564848 -0.40387353522152758 0 -0.42736227186559528 -0.41250939947999687 0 -0.42798743510346321 -0.40461924019690898 0
[...]
<PointData Scalars="" Vectors="displacement," Tensors="">
<DataArray type="Float64" Name="displacement" NumberOfComponents="3" format="ascii">
0.034599263766711179 -1.5463952694144143e-07 0 0.033665658472165683 -0.00028616917067886104 0 0.034603720479646959 -4.4897324912034852e-07 0 0.034997278277563958 3.2725467457526389e-07 0 0.034992191835082821 -1.1302702210653415e-06 0 0.034997278277563958 3.2725467457526389e-07 0 0.034992191835082821 -1.1302702210653415e-06 0 0.035001150274288295 -3.0118187096511242e-07 0 0.034597678882165764 -1.6966973456115864e-06 0 0.032372309296821951 -0.00067360210867353418 0 0.033347314694921332 6.0852197430990616e-05 0 0.034597678882165764 -1.6966973456115864e-06 0 0.033354243293203162 9.9826420954405277e-07 0 0.033347314694921332 6.0852197430990616e-05 0 0.032372309296821951 -0.00067360210867353418 0 0.032762152590085795 0.0005246009158540757 0 0.033347314694921332 6.0852197430990616e-05 0 0.032762152590085795 0.0005246009158540757 0 0.033354243293203162 9.9826420954405277e-07 0 0.033347314694921332 6.0852197430990616e-05 0 0.030603846570825721 -0.00062962400724972248 0 0.032106185784067758 -1.6824645008983553e-06 0 0.031094308952186765 -1.8340884594311356e-05 0 0.032762152590085795 0.0005246009158540757 0 0.033354243293203162 9.9826420954405277e-07 0 0.032113384605671431 -1.7356630203804111e-07 0 0.031655104090432616 -3.7794365935288626e-05 0 0.032110414320910587 3.716666566274316e-09 0 0.030603846570825721 -0.00062962400724972248 0 0.031094308952186765 -1.8340884594311356e-05 0 0.030440136120097664 -0.00036233421581506625 0 0.03086812598933705 0.00012787883996097919 0 0.031094308952186765 -1.8340884594311356e-05 0 0.030440136120097664 -0.00036233421581506625 0 0.03086812598933705 0.00012787883996097919 0 0.031007504780054498 1.3143751739276079e-06 0 0.031094308952186765 -1.8340884594311356e-05 0 0.030019417712107033 5.3675427398373891e-05 0 0.031003369455240248 9.2873750293977271e-09 0 0.032106185784067758 -1.6824645008983553e-06 0 0.031007504780054498 1.3143751739276079e-06 0 0.031094308952186765 -1.8340884594311356e-05 0 0.030166707652251139 -0.00050180134340687863 0 0.029587850169090272 -1.2238726724219942e-05 0 0.029826393087429771 -0.000298453291896967 0 0.030166707652251139 -0.00050180134340687863 0 0.030155281201068244 -0.00052982300018900345 0 0.029826393087429771 -0.000298453291896967 0 0.030166707652251139 -0.00050180134340687863 0 0.030440136120097664 -0.00036233421581506625 0 0.030414201311617654 -0.00046757370445582044 0 0.030166707652251139 -0.00050180134340687863 0 0.030440136120097664 -0.00036233421581506625 0 0.029587850169090272 -1.2238726724219942e-05 0 0.03086812598933705 0.00012787883996097919 0 0.030440136120097664 -0.00036233421581506625 0 0.029587850169090272 -1.2238726724219942e-05 0 0.030603846570825721 -0.00062962400724972248 0 0.030440136120097664 -0.00036233421581506625 0 0.030587603769313319 -0.00046357652719361352 0 0.030440136120097664 -0.00036233421581506625 0 0.030414201311617654 -0.00046757370445582044 0 0.030587603769313319 -0.00046357652719361352 0 0.030166707652251139 -0.00050180134340687863 0 0.030725944576373565 -0.00048312248578366986 0 0.031019252105938949 -0.0010220472304839062 0 0.030166707652251139 -0.00050180134340687863 0 0.030414201311617654 -0.00046757370445582044 0 0.030725944576373565 -0.00048312248578366986 0 0.030414201311617654 -0.00046757370445582044 0 0.030587603769313319 -0.00046357652719361352 0 0.030725944576373565 -0.00048312248578366986 0 0.034992191835082821 -1.1302702210653415e-06 0 0.035001150274288295 -3.0118187096511242e-07 0 0.034996026344746016 -1.7603808934919461e-06 0 0.030725944576373565 -0.00048312248578366986 0 0.031043154174211798 -8.3029810930809178e-05 0 0.031406937186949715 -0.00014530238209250573 0 0.030725944576373565 -0.00048312248578366986 0 0.030876984082260448 -6.1067497169766947e-05 0 0.031043154174211798 -8.3029810930809178e-05 0 0.030587603769313319 -0.00046357652719361352 0 0.030725944576373565 -0.00048312248578366986 0 0.030876984082260448 -6.1067497169766947e-05 0 0.031655104090432616 -3.7794365935288626e-05 0 0.030949744153562071 -9.8422208739728872e-05 0 0.032372309296821951 -0.00067360210867353418 0 0.032762152590085795 0.0005246009158540757 0 0.030876984082260448 -6.1067497169766947e-05 0 0.030603846570825721 -0.00062962400724972248 0 0.030587603769313319 -0.00046357652719361352 0 0.030876984082260448 -6.1067497169766947e-05 0 0.033665658472165683 -0.00028616917067886104 0 0.032983177649016308 -5.7587384247977291e-05 0 0.032372309296821951 -0.00067360210867353418 0 0.030876984082260448 -6.1067497169766947e-05 0 0.030816477894518725 -0.00014054376641107349 0 0.030876984082260448 -6.1067497169766947e-05 0 0.031043154174211798 -8.3029810930809178e-05 0 0.030816477894518725 -0.00014054376641107349 0 0.035001150274288295 -3.0118187096511242e-07 0 0.035005941985106016 2.3796890239949198e-06 0 0.034998003305829979 8.8854472978883669e-07 0 0.032983177649016308 -5.7587384247977291e-05 0 0.033569065287208835 0.00026368670694064975 0 0.031043154174211798 -8.3029810930809178e-05 0 0.032067633658861998 0.00065858314324758244 0 0.031406937186949715 -0.00014530238209250573 0 0.035001150274288295 -3.0118187096511242e-07 0 0.034996026344746016 -1.7603808934919461e-06 0 0.035005941985106016 2.3796890239949198e-06 0 0.031043154174211798 -8.3029810930809178e-05 0 0.030816477894518725 -0.00014054376641107349 0 0.032067633658861998 0.00065858314324758244 0 0.033569065287208835 0.00026368670694064975 0 0.034738983756947985 0.00013597905427163622 0 0.032067633658861998 0.00065858314324758244 0 0.03333011168144516 -0.00011512399018453129 0 0.034864918973107076 7.4739417790209618e-05 0 0.032067633658861998 0.00065858314324758244 0 0.03333011168144516 -0.00011512399018453129 0 0.032045679144195025 -0.00053737004047726652 0 0.03333011168144516 -0.00011512399018453129 0 0.032045679144195025 -0.00053737004047726652 0 0.034192046774305415 -0.0005054724521151013 0 0.030725944576373565 -0.00048312248578366986 0 0.032045679144195025 -0.00053737004047726652 0 0.031406937186949715 -0.00014530238209250573 0 0.032067633658861998 0.00065858314324758244 0 0.032045679144195025 -0.00053737004047726652 0 0.031406937186949715 -0.00014530238209250573 0 0.034998003305829979 8.8854472978883669e-07 0 0.034864918973107076 7.4739417790209618e-05 0 0.034956853472221217 -4.4534044262167944e-05 0 0.035005941985106016 2.3796890239949198e-06 0 0.034998003305829979 8.8854472978883669e-07 0 0.034864918973107076 7.4739417790209618e-05 0 0.03333011168144516 -0.00011512399018453129 0 0.034864918973107076 7.4739417790209618e-05 0 0.034192046774305415 -0.0005054724521151013 0 0.034177752976424301 -0.00048351797891505344 0 0.035365122505591748 -0.00012428342987523942 0 0.034864918973107076 7.4739417790209618e-05 0 0.034192046774305415 -0.0005054724521151013 0 0.034956853472221217 -4.4534044262167944e-05 0 0.034192046774305415 -0.0005054724521151013 0 0.035037747738136317 -0.0011216819111486967 0 0.035564009490123685 -0.00022238737972114488 0 0.035037747738136317 -0.0011216819111486967 0 0.033178770297514593 -0.0014349492450663121 0 0.034749171503099481 -0.0023412237358238852 0 0.034192046774305415 -0.0005054724521151013 0 0.035037747738136317 -0.0011216819111486967 0 0.033178770297514593 -0.0014349492450663121 0 0.033178770297514593 -0.0014349492450663121 0 0.033231834664137462 -0.0028427093961831051 0 0.034749171503099481 -0.0023412237358238852 0 0.026814066439188128 -0.00092440948021857211 0 0.028270416761172361 -0.00038263281926922494 0 0.026993713947776232 -0.0011652182539250214 0 0.030029516167546288 -0.0019226778672078106 0 0.031576842388267086 -0.0013760339582645485 0 0.030725944576373565 -0.00048312248578366986 0 0.032045679144195025 -0.00053737004047726652 0 0.031019252105938949 -0.0010220472304839062 0 0.032045679144195025 -0.00053737004047726652 0 0.034192046774305415 -0.0005054724521151013 0 0.033178770297514593 -0.0014349492450663121 0 0.032045679144195025 -0.00053737004047726652 0 0.033178770297514593 -0.0014349492450663121 0 0.031019252105938949 -0.0010220472304839062 0 0.033178770297514593 -0.0014349492450663121 0 0.031019252105938949 -0.0010220472304839062 0 0.031993253034439076 -0.0024396309849002498 0 0.033178770297514593 -0.0014349492450663121 0 0.033231834664137462 -0.0028427093961831051 0 0.031993253034439076 -0.0024396309849002498 0 0.033231834664137462 -0.0028427093961831051 0 0.031993253034439076 -0.0024396309849002498 0 0.031298987887036014 -0.0034931637435199224 0 0.030166707652251139 -0.00050180134340687863 0 0.031019252105938949 -0.0010220472304839062 0 0.030155281201068244 -0.00052982300018900345 0 0.031019252105938949 -0.0010220472304839062 0 0.030155281201068244 -0.00052982300018900345 0 0.029578023098920169 -0.00024317757163273783 0 0.031019252105938949 -0.0010220472304839062 0 0.031993253034439076 -0.0024396309849002498 0 0.031018709453569736 -0.003573218291051145 0 0.031046091249023786 -0.0011431051235204278 0 0.029542837366110852 -0.001480098978961101 0 0.030155281201068244 -0.00052982300018900345 0 0.029601263448705183 -0.00018816006432165395 0 0.029826393087429771 -0.000298453291896967 0 0.030155281201068244 -0.00052982300018900345 0 0.029601263448705183 -0.00018816006432165395 0 0.029578023098920169 -0.00024317757163273783 0 0.029704275445557465 -0.001123979591481129 0 0.029542837366110852 -0.001480098978961101 0 0.029601263448705183 -0.00018816006432165395 0 0.029443844755969378 -9.546321295793963e-05 0 0.029285893866927388 -5.7875971590118029e-05 0 0.029601263448705183 -0.00018816006432165395 0 0.029443844755969378 -9.546321295793963e-05 0 0.029458273427326299 -0.0002403042452317884 0 0.026461380958624804 -0.0012488761108125274 0 0.026493615874654874 -0.0011433216895359486 0 0.026596185542534973 -0.0012886534834594377 0 0.027965594214620151 -0.00080923562560467988 0 0.028791892294843899 -0.0018039125823061776 0 0.028599063768318181 -0.001202630865596943 0 0.028613896545510754 -0.0011732293809975215 0 0.028601385319607903 -0.0011761456660210885 0 0.027965594214620151 -0.00080923562560467988 0 0.029542837366110852 -0.001480098978961101 0 0.031993253034439076 -0.0024396309849002498 0 0.031298987887036014 -0.0034931637435199224 0 0.031018709453569736 -0.003573218291051145 0 0.028791892294843899 -0.0018039125823061776 0 0.029542837366110852 -0.001480098978961101 0 0.030029516167546288 -0.0019226778672078106 0 0.028791892294843899 -0.0018039125823061776 0 0.026814066439188128 -0.00092440948021857211 0 0.026493615874654874 -0.0011433216895359486 0 0.026690139809512445 -0.0012088375190315824 0 0.026814066439188128 -0.00092440948021857211 0 0.026690139809512445 -0.0012088375190315824 0 0.026851414864388801 -0.0012232613261167254 0 0.026690139809512445 -0.0012088375190315824 0 0.026596185542534973 -0.0012886534834594377 0 0.026730314678975152 -0.0013769072846035722 0 0.026690139809512445 -0.0012088375190315824 0 0.026730314678975152 -0.0013769072846035722 0 0.026851414864388801 -0.0012232613261167254 0 0.026493615874654874 -0.0011433216895359486 0 0.026690139809512445 -0.0012088375190315824 0 0.026596185542534973 -0.0012886534834594377 0 0.026730314678975152 -0.0013769072846035722 0 0.026584629151863513 -0.001416361179457632 0 0.026657658342987885 -0.0015784416810529804 0 0.026730314678975152 -0.0013769072846035722 0 0.026817641585041564 -0.001528647683678641 0 0.026657658342987885 -0.0015784416810529804 0 0.026596185542534973 -0.0012886534834594377 0 0.026730314678975152 -0.0013769072846035722 0 0.026584629151863513 -0.001416361179457632 0 0.029443844755969378 -9.546321295793963e-05 0 0.029285893866927388 -5.7875971590118029e-05 0 0.028845318566593982 -2.1366360163496678e-05 0 0.027965594214620151 -0.00080923562560467988 0 0.02758837624503873 -6.7381453478014902e-05 0 0.026266844779017254 -0.00057289858438420256 0 0.026315095235992011 -0.00037343158937150562 0 0.026235028631980583 -0.0003574909861043481 0 0.027965594214620151 -0.00080923562560467988 0 0.026206149089711209 -0.00098931246142398735 0 0.026461380958624804 -0.0012488761108125274 0 0.026584629151863513 -0.001416361179457632 0 0.026474350345561844 -0.0015657295285730199 0 0.026461380958624804 -0.0012488761108125274 0 0.026596185542534973 -0.0012886534834594377 0 0.026584629151863513 -0.001416361179457632 0 0.027066988647295981 -0.0010996404784898316 0 0.027704991584868197 -0.0021918340836772749 0 0.026993713947776232 -0.0011652182539250214 0 0.026999285568362199 -0.0013510102584169718 0 0.027101631664227355 -0.0013602435449131449 0 0.028302700323809642 -0.0012161394369185612 0 0.026993713947776232 -0.0011652182539250214 0 0.028680126023732457 -0.0022275919785559825 0 0.028270416761172361 -0.00038263281926922494 0 0.028302700323809642 -0.0012161394369185612 0 0.026993713947776232 -0.0011652182539250214 0 0.028302700323809642 -0.0012161394369185612 0 0.028680126023732457 -0.0022275919785559825 0 0.029289245617700816 -0.0010875696143790167 0 0.028270416761172361 -0.00038263281926922494 0 0.028302700323809642 -0.0012161394369185612 0 0.029289245617700816 -0.0010875696143790167 0 0.026993713947776232 -0.0011652182539250214 0 0.026888901665897406 -0.001309435656713489 0 0.026999285568362199 -0.0013510102584169718 0 0.026814066439188128 -0.00092440948021857211 0 0.026993713947776232 -0.0011652182539250214 0 0.026851414864388801 -0.0012232613261167254 0 0.026993713947776232 -0.0011652182539250214 0 0.026851414864388801 -0.0012232613261167254 0 0.026888901665897406 -0.001309435656713489 0 0.026730314678975152 -0.0013769072846035722 0 0.026851414864388801 -0.0012232613261167254 0 0.026888901665897406 -0.001309435656713489 0 0.026917168516924581 -0.0015019433551587632 0 0.026999285568362199 -0.0013510102584169718 0 0.027027924930016961 -0.0015652826819445083 0 0.026730314678975152 -0.0013769072846035722 0 0.026888901665897406 -0.001309435656713489 0 0.026874006999381125 -0.0014127844447637023 0 0.026730314678975152 -0.0013769072846035722 0 0.026874006999381125 -0.0014127844447637023 0 0.026817641585041564 -0.001528647683678641 0 0.026874006999381125 -0.0014127844447637023 0 0.026917168516924581 -0.0015019433551587632 0 0.026817641585041564 -0.001528647683678641 0 0.026874006999381125 -0.0014127844447637023 0 0.026917168516924581 -0.0015019433551587632 0 0.026999285568362199 -0.0013510102584169718 0 0.026888901665897406 -0.001309435656713489 0 0.026874006999381125 -0.0014127844447637023 0 0.026999285568362199 -0.0013510102584169718 0 0.027024135021006344 -0.0014601348662920293 0 0.025815433873772511 -0.0016220737324114799 0 0.026999285568362199 -0.0013510102584169718 0 0.027065736602981953 -0.0014228319328252182 0 0.02702234232940421 -0.0014973759837028538 0 0.026999285568362199 -0.0013510102584169718 0 0.027067778703307652 -0.0013770312555639959 0 0.027101631664227355 -0.0013602435449131449 0 0.026999285568362199 -0.0013510102584169718 0 0.027066629593762312 -0.0014027793204889919 0 0.027067778703307652 -0.0013770312555639959 0 0.026999285568362199 -0.0013510102584169718 0 0.027066629593762312 -0.0014027793204889919 0 0.027065736602981953 -0.0014228319328252182 0 0.026166869976107489 -0.0022261180278678712 0 0.025711904352669609 -0.0018819554457211421 0 0.027066629593762312 -0.0014027793204889919 0 0.02708203687259771 -0.0013921864221306394 0 0.027064945007903244 -0.001423765387904361 0 0.024414238233412135 -0.0022426615943609181 0 0.024444084097709599 -0.0021797743992804678 0 0.024197859112419007 -0.0020476794991778073 0 0.025794492584933496 -0.0017785365527230078 0 0.025711904352669609 -0.0018819554457211421 0 0.026166869976107489 -0.0022261180278678712 0 0.027704991584868197 -0.0021918340836772749 0 0.027080917730415557 -0.0013916459238338683 0 0.027067778703307652 -0.0013770312555639959 0 0.027101631664227355 -0.0013602435449131449 0 0.027066629593762312 -0.0014027793204889919 0 0.02708203687259771 -0.0013921864221306394 0 0.027067778703307652 -0.0013770312555639959 0 0.026166869976107489 -0.0022261180278678712 0 0.026244065717091307 -0.0021737300211281153 0 0.024634610750821337 -0.0017868489674833284 0 0.024618030793372409 -0.0015460697296648042 0 0.024684370687087096 -0.0016744805888003291 0 0.02457344699896041 -0.0016297779390005108 0 0.024582241168684498 -0.0016390899786248503 0 0.024587014598161514 -0.0016202458355916111 0 0.024444084097709599 -0.0021797743992804678 0 0.024434346881834962 -0.001880633410551282 0 0.024197859112419007 -0.0020476794991778073 0 0.025711904352669609 -0.0018819554457211421 0 0.023016587463869313 -0.0016176510285270901 0 0.025711904352669609 -0.0018819554457211421 0 0.025815433873772511 -0.0016220737324114799 0 0.023016587463869313 -0.0016176510285270901 0 0.025815433873772511 -0.0016220737324114799 0 0.027027924930016961 -0.0015652826819445083 0 0.026873402316634602 -0.0016509844562611145 0 0.026864272617018802 -0.0018433679521660897 0 0.025815433873772511 -0.0016220737324114799 0 0.024453135515898054 -0.0014738160011484392 0 0.026917168516924581 -0.0015019433551587632 0 0.026873402316634602 -0.0016509844562611145 0 0.026817641585041564 -0.001528647683678641 0 0.026917168516924581 -0.0015019433551587632 0 0.027027924930016961 -0.0015652826819445083 0 0.026873402316634602 -0.0016509844562611145 0 0.026873402316634602 -0.0016509844562611145 0 0.026817641585041564 -0.001528647683678641 0 0.026774499432704525 -0.0016283691518947636 0 0.026817641585041564 -0.001528647683678641 0 0.026774499432704525 -0.0016283691518947636 0 0.026657658342987885 -0.0015784416810529804 0 0.026774499432704525 -0.0016283691518947636 0 0.026801099383747057 -0.0017554177789751017 0 0.026688777648323204 -0.0017129187753182906 0 0.026873402316634602 -0.0016509844562611145 0 0.026774499432704525 -0.0016283691518947636 0 0.026801099383747057 -0.0017554177789751017 0 0.026647719582634954 -0.0017484077561199607 0 0.02664914943272316 -0.0017471467578265671 0 0.026688777648323204 -0.0017129187753182906 0 0.02664914943272316 -0.0017471467578265671 0 0.026633267864044786 -0.0017579400218114649 0 0.026688777648323204 -0.0017129187753182906 0 0.026801099383747057 -0.0017554177789751017 0 0.026834540507206739 -0.0018658188095940021 0 0.026688777648323204 -0.0017129187753182906 0 0.024351687410606164 -0.0015685461240367352 0 0.026813660686365461 -0.0022403149914820009 0 0.024351687410606164 -0.0015685461240367352 0 0.021856074201442255 -0.00079573703400032591 0 0.02663611113586515 -0.0017563488854264162 0 0.026636833300577433 -0.0017515370802218826 0 0.026632062609485672 -0.0017619139732483111 0 0.026647719582634954 -0.0017484077561199607 0 0.02664914943272316 -0.0017471467578265671 0 0.026640621109092526 -0.0017529781236524542 0 0.026647719582634954 -0.0017484077561199607 0 0.026633296514037758 -0.0017577427342042478 0 0.026640621109092526 -0.0017529781236524542 0 0.026633296514037758 -0.0017577427342042478 0 0.026640621109092526 -0.0017529781236524542 0 0.02663611113586515 -0.0017563488854264162 0 0.026640621109092526 -0.0017529781236524542 0 0.02663611113586515 -0.0017563488854264162 0 0.026637221242195409 -0.0017534081132898609 0 0.02663611113586515 -0.0017563488854264162 0 0.026637221242195409 -0.0017534081132898609 0 0.026636833300577433 -0.0017515370802218826 0 0.024668856220989455 -0.0014418233188497249 0 0.024351687410606164 -0.0015685461240367352 0 0.02664914943272316 -0.0017471467578265671 0 0.026637221242195409 -0.0017534081132898609 0 0.026633267864044786 -0.0017579400218114649 0 0.02664914943272316 -0.0017471467578265671 0 0.026640621109092526 -0.0017529781236524542 0 0.026637221242195409 -0.0017534081132898609 0 0.022602827345151212 -0.00055855004729351892 0 0.022821295442813572 -0.00078452717125158087 0 0.022438303670085629 -0.0010131229200969144 0 0.022162598388141202 -0.0011869060472693425 0 0.022108065211949843 -0.0010502038128001254 0 0.02178933221217047 -0.0012372530246035878 0 0.022162598388141202 -0.0011869060472693425 0 0.02221291278831684 -0.0011537540043916232 0 0.022108065211949843 -0.0010502038128001254 0 0.024453135515898054 -0.0014738160011484392